n -t 0 -s 0 -S DLABEL -l "TCP Source" -L ""
n -t 0 -s 1 -S DLABEL -l "UDP Source" -L ""
n -t 0 -s 2 -S DLABEL -l "Sink" -L ""
V -t * -v 1.0a5 -a 0
A -t * -n 1 -p 0 -o 0x7fffffff -c 30 -a 1
A -t * -h 1 -m 1073741823 -s 0
c -t * -i 1 -n red
c -t * -i 2 -n yellow
n -t * -a 0 -s 0 -S UP -v circle -c black -i black
n -t * -a 1 -s 1 -S UP -v circle -c black -i black
n -t * -a 2 -s 2 -S UP -v circle -c black -i black
l -t * -s 0 -d 1 -S UP -r 2000000 -D 0.01 -c black -o right
l -t * -s 1 -d 2 -S UP -r 1750000 -D 0.02 -c black -o right
+ -t 0.1 -s 1 -d 2 -p cbr -e 500 -c 1 -i 0 -a 1 -x {1.0 2.1 0 ------- null}
- -t 0.1 -s 1 -d 2 -p cbr -e 500 -c 1 -i 0 -a 1 -x {1.0 2.1 0 ------- null}
h -t 0.1 -s 1 -d 2 -p cbr -e 500 -c 1 -i 0 -a 1 -x {1.0 2.1 -1 ------- null}
+ -t 0.105 -s 1 -d 2 -p cbr -e 500 -c 1 -i 1 -a 1 -x {1.0 2.1 1 ------- null}
- -t 0.105 -s 1 -d 2 -p cbr -e 500 -c 1 -i 1 -a 1 -x {1.0 2.1 1 ------- null}
h -t 0.105 -s 1 -d 2 -p cbr -e 500 -c 1 -i 1 -a 1 -x {1.0 2.1 -1 ------- null}
+ -t 0.11 -s 1 -d 2 -p cbr -e 500 -c 1 -i 2 -a 1 -x {1.0 2.1 2 ------- null}
- -t 0.11 -s 1 -d 2 -p cbr -e 500 -c 1 -i 2 -a 1 -x {1.0 2.1 2 ------- null}
h -t 0.11 -s 1 -d 2 -p cbr -e 500 -c 1 -i 2 -a 1 -x {1.0 2.1 -1 ------- null}
+ -t 0.115 -s 1 -d 2 -p cbr -e 500 -c 1 -i 3 -a 1 -x {1.0 2.1 3 ------- null}
- -t 0.115 -s 1 -d 2 -p cbr -e 500 -c 1 -i 3 -a 1 -x {1.0 2.1 3 ------- null}
h -t 0.115 -s 1 -d 2 -p cbr -e 500 -c 1 -i 3 -a 1 -x {1.0 2.1 -1 ------- null}
+ -t 0.12 -s 1 -d 2 -p cbr -e 500 -c 1 -i 4 -a 1 -x {1.0 2.1 4 ------- null}
- -t 0.12 -s 1 -d 2 -p cbr -e 500 -c 1 -i 4 -a 1 -x {1.0 2.1 4 ------- null}
h -t 0.12 -s 1 -d 2 -p cbr -e 500 -c 1 -i 4 -a 1 -x {1.0 2.1 -1 ------- null}
r -t 0.122285714285714 -s 1 -d 2 -p cbr -e 500 -c 1 -i 0 -a 1 -x {1.0 2.1 0 ------- null}
+ -t 0.125 -s 1 -d 2 -p cbr -e 500 -c 1 -i 5 -a 1 -x {1.0 2.1 5 ------- null}
- -t 0.125 -s 1 -d 2 -p cbr -e 500 -c 1 -i 5 -a 1 -x {1.0 2.1 5 ------- null}
h -t 0.125 -s 1 -d 2 -p cbr -e 500 -c 1 -i 5 -a 1 -x {1.0 2.1 -1 ------- null}
r -t 0.127285714285714 -s 1 -d 2 -p cbr -e 500 -c 1 -i 1 -a 1 -x {1.0 2.1 1 ------- null}
+ -t 0.13 -s 1 -d 2 -p cbr -e 500 -c 1 -i 6 -a 1 -x {1.0 2.1 6 ------- null}
- -t 0.13 -s 1 -d 2 -p cbr -e 500 -c 1 -i 6 -a 1 -x {1.0 2.1 6 ------- null}
h -t 0.13 -s 1 -d 2 -p cbr -e 500 -c 1 -i 6 -a 1 -x {1.0 2.1 -1 ------- null}
r -t 0.132285714285714 -s 1 -d 2 -p cbr -e 500 -c 1 -i 2 -a 1 -x {1.0 2.1 2 ------- null}
+ -t 0.135 -s 1 -d 2 -p cbr -e 500 -c 1 -i 7 -a 1 -x {1.0 2.1 7 ------- null}
- -t 0.135 -s 1 -d 2 -p cbr -e 500 -c 1 -i 7 -a 1 -x {1.0 2.1 7 ------- null}
h -t 0.135 -s 1 -d 2 -p cbr -e 500 -c 1 -i 7 -a 1 -x {1.0 2.1 -1 ------- null}
r -t 0.137285714285714 -s 1 -d 2 -p cbr -e 500 -c 1 -i 3 -a 1 -x {1.0 2.1 3 ------- null}
+ -t 0.14 -s 1 -d 2 -p cbr -e 500 -c 1 -i 8 -a 1 -x {1.0 2.1 8 ------- null}
- -t 0.14 -s 1 -d 2 -p cbr -e 500 -c 1 -i 8 -a 1 -x {1.0 2.1 8 ------- null}
h -t 0.14 -s 1 -d 2 -p cbr -e 500 -c 1 -i 8 -a 1 -x {1.0 2.1 -1 ------- null}
r -t 0.142285714285714 -s 1 -d 2 -p cbr -e 500 -c 1 -i 4 -a 1 -x {1.0 2.1 4 ------- null}
+ -t 0.145 -s 1 -d 2 -p cbr -e 500 -c 1 -i 9 -a 1 -x {1.0 2.1 9 ------- null}
- -t 0.145 -s 1 -d 2 -p cbr -e 500 -c 1 -i 9 -a 1 -x {1.0 2.1 9 ------- null}
h -t 0.145 -s 1 -d 2 -p cbr -e 500 -c 1 -i 9 -a 1 -x {1.0 2.1 -1 ------- null}
r -t 0.147285714285714 -s 1 -d 2 -p cbr -e 500 -c 1 -i 5 -a 1 -x {1.0 2.1 5 ------- null}
+ -t 0.15 -s 1 -d 2 -p cbr -e 500 -c 1 -i 10 -a 1 -x {1.0 2.1 10 ------- null}
- -t 0.15 -s 1 -d 2 -p cbr -e 500 -c 1 -i 10 -a 1 -x {1.0 2.1 10 ------- null}
h -t 0.15 -s 1 -d 2 -p cbr -e 500 -c 1 -i 10 -a 1 -x {1.0 2.1 -1 ------- null}
r -t 0.152285714285714 -s 1 -d 2 -p cbr -e 500 -c 1 -i 6 -a 1 -x {1.0 2.1 6 ------- null}
+ -t 0.155 -s 1 -d 2 -p cbr -e 500 -c 1 -i 11 -a 1 -x {1.0 2.1 11 ------- null}
- -t 0.155 -s 1 -d 2 -p cbr -e 500 -c 1 -i 11 -a 1 -x {1.0 2.1 11 ------- null}
h -t 0.155 -s 1 -d 2 -p cbr -e 500 -c 1 -i 11 -a 1 -x {1.0 2.1 -1 ------- null}
r -t 0.157285714285714 -s 1 -d 2 -p cbr -e 500 -c 1 -i 7 -a 1 -x {1.0 2.1 7 ------- null}
+ -t 0.16 -s 1 -d 2 -p cbr -e 500 -c 1 -i 12 -a 1 -x {1.0 2.1 12 ------- null}
- -t 0.16 -s 1 -d 2 -p cbr -e 500 -c 1 -i 12 -a 1 -x {1.0 2.1 12 ------- null}
h -t 0.16 -s 1 -d 2 -p cbr -e 500 -c 1 -i 12 -a 1 -x {1.0 2.1 -1 ------- null}
r -t 0.162285714285714 -s 1 -d 2 -p cbr -e 500 -c 1 -i 8 -a 1 -x {1.0 2.1 8 ------- null}
+ -t 0.165 -s 1 -d 2 -p cbr -e 500 -c 1 -i 13 -a 1 -x {1.0 2.1 13 ------- null}
- -t 0.165 -s 1 -d 2 -p cbr -e 500 -c 1 -i 13 -a 1 -x {1.0 2.1 13 ------- null}
h -t 0.165 -s 1 -d 2 -p cbr -e 500 -c 1 -i 13 -a 1 -x {1.0 2.1 -1 ------- null}
r -t 0.167285714285714 -s 1 -d 2 -p cbr -e 500 -c 1 -i 9 -a 1 -x {1.0 2.1 9 ------- null}
+ -t 0.17 -s 1 -d 2 -p cbr -e 500 -c 1 -i 14 -a 1 -x {1.0 2.1 14 ------- null}
- -t 0.17 -s 1 -d 2 -p cbr -e 500 -c 1 -i 14 -a 1 -x {1.0 2.1 14 ------- null}
h -t 0.17 -s 1 -d 2 -p cbr -e 500 -c 1 -i 14 -a 1 -x {1.0 2.1 -1 ------- null}
r -t 0.172285714285714 -s 1 -d 2 -p cbr -e 500 -c 1 -i 10 -a 1 -x {1.0 2.1 10 ------- null}
+ -t 0.175 -s 1 -d 2 -p cbr -e 500 -c 1 -i 15 -a 1 -x {1.0 2.1 15 ------- null}
- -t 0.175 -s 1 -d 2 -p cbr -e 500 -c 1 -i 15 -a 1 -x {1.0 2.1 15 ------- null}
h -t 0.175 -s 1 -d 2 -p cbr -e 500 -c 1 -i 15 -a 1 -x {1.0 2.1 -1 ------- null}
r -t 0.177285714285714 -s 1 -d 2 -p cbr -e 500 -c 1 -i 11 -a 1 -x {1.0 2.1 11 ------- null}
+ -t 0.18 -s 1 -d 2 -p cbr -e 500 -c 1 -i 16 -a 1 -x {1.0 2.1 16 ------- null}
- -t 0.18 -s 1 -d 2 -p cbr -e 500 -c 1 -i 16 -a 1 -x {1.0 2.1 16 ------- null}
h -t 0.18 -s 1 -d 2 -p cbr -e 500 -c 1 -i 16 -a 1 -x {1.0 2.1 -1 ------- null}
r -t 0.182285714285714 -s 1 -d 2 -p cbr -e 500 -c 1 -i 12 -a 1 -x {1.0 2.1 12 ------- null}
+ -t 0.185 -s 1 -d 2 -p cbr -e 500 -c 1 -i 17 -a 1 -x {1.0 2.1 17 ------- null}
- -t 0.185 -s 1 -d 2 -p cbr -e 500 -c 1 -i 17 -a 1 -x {1.0 2.1 17 ------- null}
h -t 0.185 -s 1 -d 2 -p cbr -e 500 -c 1 -i 17 -a 1 -x {1.0 2.1 -1 ------- null}
r -t 0.187285714285714 -s 1 -d 2 -p cbr -e 500 -c 1 -i 13 -a 1 -x {1.0 2.1 13 ------- null}
+ -t 0.19 -s 1 -d 2 -p cbr -e 500 -c 1 -i 18 -a 1 -x {1.0 2.1 18 ------- null}
- -t 0.19 -s 1 -d 2 -p cbr -e 500 -c 1 -i 18 -a 1 -x {1.0 2.1 18 ------- null}
h -t 0.19 -s 1 -d 2 -p cbr -e 500 -c 1 -i 18 -a 1 -x {1.0 2.1 -1 ------- null}
r -t 0.192285714285714 -s 1 -d 2 -p cbr -e 500 -c 1 -i 14 -a 1 -x {1.0 2.1 14 ------- null}
+ -t 0.195 -s 1 -d 2 -p cbr -e 500 -c 1 -i 19 -a 1 -x {1.0 2.1 19 ------- null}
- -t 0.195 -s 1 -d 2 -p cbr -e 500 -c 1 -i 19 -a 1 -x {1.0 2.1 19 ------- null}
h -t 0.195 -s 1 -d 2 -p cbr -e 500 -c 1 -i 19 -a 1 -x {1.0 2.1 -1 ------- null}
r -t 0.197285714285714 -s 1 -d 2 -p cbr -e 500 -c 1 -i 15 -a 1 -x {1.0 2.1 15 ------- null}
+ -t 0.2 -s 1 -d 2 -p cbr -e 500 -c 1 -i 20 -a 1 -x {1.0 2.1 20 ------- null}
- -t 0.2 -s 1 -d 2 -p cbr -e 500 -c 1 -i 20 -a 1 -x {1.0 2.1 20 ------- null}
h -t 0.2 -s 1 -d 2 -p cbr -e 500 -c 1 -i 20 -a 1 -x {1.0 2.1 -1 ------- null}
r -t 0.202285714285714 -s 1 -d 2 -p cbr -e 500 -c 1 -i 16 -a 1 -x {1.0 2.1 16 ------- null}
+ -t 0.205 -s 1 -d 2 -p cbr -e 500 -c 1 -i 21 -a 1 -x {1.0 2.1 21 ------- null}
- -t 0.205 -s 1 -d 2 -p cbr -e 500 -c 1 -i 21 -a 1 -x {1.0 2.1 21 ------- null}
h -t 0.205 -s 1 -d 2 -p cbr -e 500 -c 1 -i 21 -a 1 -x {1.0 2.1 -1 ------- null}
r -t 0.207285714285714 -s 1 -d 2 -p cbr -e 500 -c 1 -i 17 -a 1 -x {1.0 2.1 17 ------- null}
+ -t 0.21 -s 1 -d 2 -p cbr -e 500 -c 1 -i 22 -a 1 -x {1.0 2.1 22 ------- null}
- -t 0.21 -s 1 -d 2 -p cbr -e 500 -c 1 -i 22 -a 1 -x {1.0 2.1 22 ------- null}
h -t 0.21 -s 1 -d 2 -p cbr -e 500 -c 1 -i 22 -a 1 -x {1.0 2.1 -1 ------- null}
r -t 0.212285714285714 -s 1 -d 2 -p cbr -e 500 -c 1 -i 18 -a 1 -x {1.0 2.1 18 ------- null}
+ -t 0.215 -s 1 -d 2 -p cbr -e 500 -c 1 -i 23 -a 1 -x {1.0 2.1 23 ------- null}
- -t 0.215 -s 1 -d 2 -p cbr -e 500 -c 1 -i 23 -a 1 -x {1.0 2.1 23 ------- null}
h -t 0.215 -s 1 -d 2 -p cbr -e 500 -c 1 -i 23 -a 1 -x {1.0 2.1 -1 ------- null}
r -t 0.217285714285714 -s 1 -d 2 -p cbr -e 500 -c 1 -i 19 -a 1 -x {1.0 2.1 19 ------- null}
+ -t 0.22 -s 1 -d 2 -p cbr -e 500 -c 1 -i 24 -a 1 -x {1.0 2.1 24 ------- null}
- -t 0.22 -s 1 -d 2 -p cbr -e 500 -c 1 -i 24 -a 1 -x {1.0 2.1 24 ------- null}
h -t 0.22 -s 1 -d 2 -p cbr -e 500 -c 1 -i 24 -a 1 -x {1.0 2.1 -1 ------- null}
r -t 0.222285714285714 -s 1 -d 2 -p cbr -e 500 -c 1 -i 20 -a 1 -x {1.0 2.1 20 ------- null}
+ -t 0.225 -s 1 -d 2 -p cbr -e 500 -c 1 -i 25 -a 1 -x {1.0 2.1 25 ------- null}
- -t 0.225 -s 1 -d 2 -p cbr -e 500 -c 1 -i 25 -a 1 -x {1.0 2.1 25 ------- null}
h -t 0.225 -s 1 -d 2 -p cbr -e 500 -c 1 -i 25 -a 1 -x {1.0 2.1 -1 ------- null}
r -t 0.227285714285714 -s 1 -d 2 -p cbr -e 500 -c 1 -i 21 -a 1 -x {1.0 2.1 21 ------- null}
+ -t 0.23 -s 1 -d 2 -p cbr -e 500 -c 1 -i 26 -a 1 -x {1.0 2.1 26 ------- null}
- -t 0.23 -s 1 -d 2 -p cbr -e 500 -c 1 -i 26 -a 1 -x {1.0 2.1 26 ------- null}
h -t 0.23 -s 1 -d 2 -p cbr -e 500 -c 1 -i 26 -a 1 -x {1.0 2.1 -1 ------- null}
r -t 0.232285714285714 -s 1 -d 2 -p cbr -e 500 -c 1 -i 22 -a 1 -x {1.0 2.1 22 ------- null}
+ -t 0.235 -s 1 -d 2 -p cbr -e 500 -c 1 -i 27 -a 1 -x {1.0 2.1 27 ------- null}
- -t 0.235 -s 1 -d 2 -p cbr -e 500 -c 1 -i 27 -a 1 -x {1.0 2.1 27 ------- null}
h -t 0.235 -s 1 -d 2 -p cbr -e 500 -c 1 -i 27 -a 1 -x {1.0 2.1 -1 ------- null}
r -t 0.237285714285714 -s 1 -d 2 -p cbr -e 500 -c 1 -i 23 -a 1 -x {1.0 2.1 23 ------- null}
+ -t 0.24 -s 1 -d 2 -p cbr -e 500 -c 1 -i 28 -a 1 -x {1.0 2.1 28 ------- null}
- -t 0.24 -s 1 -d 2 -p cbr -e 500 -c 1 -i 28 -a 1 -x {1.0 2.1 28 ------- null}
h -t 0.24 -s 1 -d 2 -p cbr -e 500 -c 1 -i 28 -a 1 -x {1.0 2.1 -1 ------- null}
r -t 0.242285714285714 -s 1 -d 2 -p cbr -e 500 -c 1 -i 24 -a 1 -x {1.0 2.1 24 ------- null}
+ -t 0.245 -s 1 -d 2 -p cbr -e 500 -c 1 -i 29 -a 1 -x {1.0 2.1 29 ------- null}
- -t 0.245 -s 1 -d 2 -p cbr -e 500 -c 1 -i 29 -a 1 -x {1.0 2.1 29 ------- null}
h -t 0.245 -s 1 -d 2 -p cbr -e 500 -c 1 -i 29 -a 1 -x {1.0 2.1 -1 ------- null}
r -t 0.247285714285714 -s 1 -d 2 -p cbr -e 500 -c 1 -i 25 -a 1 -x {1.0 2.1 25 ------- null}
+ -t 0.25 -s 1 -d 2 -p cbr -e 500 -c 1 -i 30 -a 1 -x {1.0 2.1 30 ------- null}
- -t 0.25 -s 1 -d 2 -p cbr -e 500 -c 1 -i 30 -a 1 -x {1.0 2.1 30 ------- null}
h -t 0.25 -s 1 -d 2 -p cbr -e 500 -c 1 -i 30 -a 1 -x {1.0 2.1 -1 ------- null}
r -t 0.252285714285714 -s 1 -d 2 -p cbr -e 500 -c 1 -i 26 -a 1 -x {1.0 2.1 26 ------- null}
+ -t 0.255 -s 1 -d 2 -p cbr -e 500 -c 1 -i 31 -a 1 -x {1.0 2.1 31 ------- null}
- -t 0.255 -s 1 -d 2 -p cbr -e 500 -c 1 -i 31 -a 1 -x {1.0 2.1 31 ------- null}
h -t 0.255 -s 1 -d 2 -p cbr -e 500 -c 1 -i 31 -a 1 -x {1.0 2.1 -1 ------- null}
r -t 0.257285714285714 -s 1 -d 2 -p cbr -e 500 -c 1 -i 27 -a 1 -x {1.0 2.1 27 ------- null}
+ -t 0.26 -s 1 -d 2 -p cbr -e 500 -c 1 -i 32 -a 1 -x {1.0 2.1 32 ------- null}
- -t 0.26 -s 1 -d 2 -p cbr -e 500 -c 1 -i 32 -a 1 -x {1.0 2.1 32 ------- null}
h -t 0.26 -s 1 -d 2 -p cbr -e 500 -c 1 -i 32 -a 1 -x {1.0 2.1 -1 ------- null}
r -t 0.262285714285714 -s 1 -d 2 -p cbr -e 500 -c 1 -i 28 -a 1 -x {1.0 2.1 28 ------- null}
+ -t 0.265 -s 1 -d 2 -p cbr -e 500 -c 1 -i 33 -a 1 -x {1.0 2.1 33 ------- null}
- -t 0.265 -s 1 -d 2 -p cbr -e 500 -c 1 -i 33 -a 1 -x {1.0 2.1 33 ------- null}
h -t 0.265 -s 1 -d 2 -p cbr -e 500 -c 1 -i 33 -a 1 -x {1.0 2.1 -1 ------- null}
r -t 0.267285714285714 -s 1 -d 2 -p cbr -e 500 -c 1 -i 29 -a 1 -x {1.0 2.1 29 ------- null}
+ -t 0.27 -s 1 -d 2 -p cbr -e 500 -c 1 -i 34 -a 1 -x {1.0 2.1 34 ------- null}
- -t 0.27 -s 1 -d 2 -p cbr -e 500 -c 1 -i 34 -a 1 -x {1.0 2.1 34 ------- null}
h -t 0.27 -s 1 -d 2 -p cbr -e 500 -c 1 -i 34 -a 1 -x {1.0 2.1 -1 ------- null}
r -t 0.272285714285714 -s 1 -d 2 -p cbr -e 500 -c 1 -i 30 -a 1 -x {1.0 2.1 30 ------- null}
+ -t 0.275 -s 1 -d 2 -p cbr -e 500 -c 1 -i 35 -a 1 -x {1.0 2.1 35 ------- null}
- -t 0.275 -s 1 -d 2 -p cbr -e 500 -c 1 -i 35 -a 1 -x {1.0 2.1 35 ------- null}
h -t 0.275 -s 1 -d 2 -p cbr -e 500 -c 1 -i 35 -a 1 -x {1.0 2.1 -1 ------- null}
r -t 0.277285714285714 -s 1 -d 2 -p cbr -e 500 -c 1 -i 31 -a 1 -x {1.0 2.1 31 ------- null}
+ -t 0.28 -s 1 -d 2 -p cbr -e 500 -c 1 -i 36 -a 1 -x {1.0 2.1 36 ------- null}
- -t 0.28 -s 1 -d 2 -p cbr -e 500 -c 1 -i 36 -a 1 -x {1.0 2.1 36 ------- null}
h -t 0.28 -s 1 -d 2 -p cbr -e 500 -c 1 -i 36 -a 1 -x {1.0 2.1 -1 ------- null}
r -t 0.282285714285714 -s 1 -d 2 -p cbr -e 500 -c 1 -i 32 -a 1 -x {1.0 2.1 32 ------- null}
+ -t 0.285 -s 1 -d 2 -p cbr -e 500 -c 1 -i 37 -a 1 -x {1.0 2.1 37 ------- null}
- -t 0.285 -s 1 -d 2 -p cbr -e 500 -c 1 -i 37 -a 1 -x {1.0 2.1 37 ------- null}
h -t 0.285 -s 1 -d 2 -p cbr -e 500 -c 1 -i 37 -a 1 -x {1.0 2.1 -1 ------- null}
r -t 0.287285714285714 -s 1 -d 2 -p cbr -e 500 -c 1 -i 33 -a 1 -x {1.0 2.1 33 ------- null}
+ -t 0.29 -s 1 -d 2 -p cbr -e 500 -c 1 -i 38 -a 1 -x {1.0 2.1 38 ------- null}
- -t 0.29 -s 1 -d 2 -p cbr -e 500 -c 1 -i 38 -a 1 -x {1.0 2.1 38 ------- null}
h -t 0.29 -s 1 -d 2 -p cbr -e 500 -c 1 -i 38 -a 1 -x {1.0 2.1 -1 ------- null}
r -t 0.292285714285714 -s 1 -d 2 -p cbr -e 500 -c 1 -i 34 -a 1 -x {1.0 2.1 34 ------- null}
+ -t 0.295 -s 1 -d 2 -p cbr -e 500 -c 1 -i 39 -a 1 -x {1.0 2.1 39 ------- null}
- -t 0.295 -s 1 -d 2 -p cbr -e 500 -c 1 -i 39 -a 1 -x {1.0 2.1 39 ------- null}
h -t 0.295 -s 1 -d 2 -p cbr -e 500 -c 1 -i 39 -a 1 -x {1.0 2.1 -1 ------- null}
r -t 0.297285714285714 -s 1 -d 2 -p cbr -e 500 -c 1 -i 35 -a 1 -x {1.0 2.1 35 ------- null}
+ -t 0.3 -s 1 -d 2 -p cbr -e 500 -c 1 -i 40 -a 1 -x {1.0 2.1 40 ------- null}
- -t 0.3 -s 1 -d 2 -p cbr -e 500 -c 1 -i 40 -a 1 -x {1.0 2.1 40 ------- null}
h -t 0.3 -s 1 -d 2 -p cbr -e 500 -c 1 -i 40 -a 1 -x {1.0 2.1 -1 ------- null}
r -t 0.302285714285714 -s 1 -d 2 -p cbr -e 500 -c 1 -i 36 -a 1 -x {1.0 2.1 36 ------- null}
+ -t 0.305 -s 1 -d 2 -p cbr -e 500 -c 1 -i 41 -a 1 -x {1.0 2.1 41 ------- null}
- -t 0.305 -s 1 -d 2 -p cbr -e 500 -c 1 -i 41 -a 1 -x {1.0 2.1 41 ------- null}
h -t 0.305 -s 1 -d 2 -p cbr -e 500 -c 1 -i 41 -a 1 -x {1.0 2.1 -1 ------- null}
r -t 0.307285714285714 -s 1 -d 2 -p cbr -e 500 -c 1 -i 37 -a 1 -x {1.0 2.1 37 ------- null}
+ -t 0.31 -s 1 -d 2 -p cbr -e 500 -c 1 -i 42 -a 1 -x {1.0 2.1 42 ------- null}
- -t 0.31 -s 1 -d 2 -p cbr -e 500 -c 1 -i 42 -a 1 -x {1.0 2.1 42 ------- null}
h -t 0.31 -s 1 -d 2 -p cbr -e 500 -c 1 -i 42 -a 1 -x {1.0 2.1 -1 ------- null}
r -t 0.312285714285714 -s 1 -d 2 -p cbr -e 500 -c 1 -i 38 -a 1 -x {1.0 2.1 38 ------- null}
+ -t 0.315 -s 1 -d 2 -p cbr -e 500 -c 1 -i 43 -a 1 -x {1.0 2.1 43 ------- null}
- -t 0.315 -s 1 -d 2 -p cbr -e 500 -c 1 -i 43 -a 1 -x {1.0 2.1 43 ------- null}
h -t 0.315 -s 1 -d 2 -p cbr -e 500 -c 1 -i 43 -a 1 -x {1.0 2.1 -1 ------- null}
r -t 0.317285714285714 -s 1 -d 2 -p cbr -e 500 -c 1 -i 39 -a 1 -x {1.0 2.1 39 ------- null}
+ -t 0.32 -s 1 -d 2 -p cbr -e 500 -c 1 -i 44 -a 1 -x {1.0 2.1 44 ------- null}
- -t 0.32 -s 1 -d 2 -p cbr -e 500 -c 1 -i 44 -a 1 -x {1.0 2.1 44 ------- null}
h -t 0.32 -s 1 -d 2 -p cbr -e 500 -c 1 -i 44 -a 1 -x {1.0 2.1 -1 ------- null}
r -t 0.322285714285714 -s 1 -d 2 -p cbr -e 500 -c 1 -i 40 -a 1 -x {1.0 2.1 40 ------- null}
+ -t 0.325 -s 1 -d 2 -p cbr -e 500 -c 1 -i 45 -a 1 -x {1.0 2.1 45 ------- null}
- -t 0.325 -s 1 -d 2 -p cbr -e 500 -c 1 -i 45 -a 1 -x {1.0 2.1 45 ------- null}
h -t 0.325 -s 1 -d 2 -p cbr -e 500 -c 1 -i 45 -a 1 -x {1.0 2.1 -1 ------- null}
r -t 0.327285714285714 -s 1 -d 2 -p cbr -e 500 -c 1 -i 41 -a 1 -x {1.0 2.1 41 ------- null}
+ -t 0.33 -s 1 -d 2 -p cbr -e 500 -c 1 -i 46 -a 1 -x {1.0 2.1 46 ------- null}
- -t 0.33 -s 1 -d 2 -p cbr -e 500 -c 1 -i 46 -a 1 -x {1.0 2.1 46 ------- null}
h -t 0.33 -s 1 -d 2 -p cbr -e 500 -c 1 -i 46 -a 1 -x {1.0 2.1 -1 ------- null}
r -t 0.332285714285714 -s 1 -d 2 -p cbr -e 500 -c 1 -i 42 -a 1 -x {1.0 2.1 42 ------- null}
+ -t 0.335 -s 1 -d 2 -p cbr -e 500 -c 1 -i 47 -a 1 -x {1.0 2.1 47 ------- null}
- -t 0.335 -s 1 -d 2 -p cbr -e 500 -c 1 -i 47 -a 1 -x {1.0 2.1 47 ------- null}
h -t 0.335 -s 1 -d 2 -p cbr -e 500 -c 1 -i 47 -a 1 -x {1.0 2.1 -1 ------- null}
r -t 0.337285714285714 -s 1 -d 2 -p cbr -e 500 -c 1 -i 43 -a 1 -x {1.0 2.1 43 ------- null}
+ -t 0.34 -s 1 -d 2 -p cbr -e 500 -c 1 -i 48 -a 1 -x {1.0 2.1 48 ------- null}
- -t 0.34 -s 1 -d 2 -p cbr -e 500 -c 1 -i 48 -a 1 -x {1.0 2.1 48 ------- null}
h -t 0.34 -s 1 -d 2 -p cbr -e 500 -c 1 -i 48 -a 1 -x {1.0 2.1 -1 ------- null}
r -t 0.342285714285714 -s 1 -d 2 -p cbr -e 500 -c 1 -i 44 -a 1 -x {1.0 2.1 44 ------- null}
+ -t 0.345 -s 1 -d 2 -p cbr -e 500 -c 1 -i 49 -a 1 -x {1.0 2.1 49 ------- null}
- -t 0.345 -s 1 -d 2 -p cbr -e 500 -c 1 -i 49 -a 1 -x {1.0 2.1 49 ------- null}
h -t 0.345 -s 1 -d 2 -p cbr -e 500 -c 1 -i 49 -a 1 -x {1.0 2.1 -1 ------- null}
r -t 0.347285714285714 -s 1 -d 2 -p cbr -e 500 -c 1 -i 45 -a 1 -x {1.0 2.1 45 ------- null}
+ -t 0.35 -s 1 -d 2 -p cbr -e 500 -c 1 -i 50 -a 1 -x {1.0 2.1 50 ------- null}
- -t 0.35 -s 1 -d 2 -p cbr -e 500 -c 1 -i 50 -a 1 -x {1.0 2.1 50 ------- null}
h -t 0.35 -s 1 -d 2 -p cbr -e 500 -c 1 -i 50 -a 1 -x {1.0 2.1 -1 ------- null}
r -t 0.352285714285714 -s 1 -d 2 -p cbr -e 500 -c 1 -i 46 -a 1 -x {1.0 2.1 46 ------- null}
+ -t 0.355 -s 1 -d 2 -p cbr -e 500 -c 1 -i 51 -a 1 -x {1.0 2.1 51 ------- null}
- -t 0.355 -s 1 -d 2 -p cbr -e 500 -c 1 -i 51 -a 1 -x {1.0 2.1 51 ------- null}
h -t 0.355 -s 1 -d 2 -p cbr -e 500 -c 1 -i 51 -a 1 -x {1.0 2.1 -1 ------- null}
r -t 0.357285714285714 -s 1 -d 2 -p cbr -e 500 -c 1 -i 47 -a 1 -x {1.0 2.1 47 ------- null}
+ -t 0.36 -s 1 -d 2 -p cbr -e 500 -c 1 -i 52 -a 1 -x {1.0 2.1 52 ------- null}
- -t 0.36 -s 1 -d 2 -p cbr -e 500 -c 1 -i 52 -a 1 -x {1.0 2.1 52 ------- null}
h -t 0.36 -s 1 -d 2 -p cbr -e 500 -c 1 -i 52 -a 1 -x {1.0 2.1 -1 ------- null}
r -t 0.362285714285714 -s 1 -d 2 -p cbr -e 500 -c 1 -i 48 -a 1 -x {1.0 2.1 48 ------- null}
+ -t 0.365 -s 1 -d 2 -p cbr -e 500 -c 1 -i 53 -a 1 -x {1.0 2.1 53 ------- null}
- -t 0.365 -s 1 -d 2 -p cbr -e 500 -c 1 -i 53 -a 1 -x {1.0 2.1 53 ------- null}
h -t 0.365 -s 1 -d 2 -p cbr -e 500 -c 1 -i 53 -a 1 -x {1.0 2.1 -1 ------- null}
r -t 0.367285714285714 -s 1 -d 2 -p cbr -e 500 -c 1 -i 49 -a 1 -x {1.0 2.1 49 ------- null}
+ -t 0.37 -s 1 -d 2 -p cbr -e 500 -c 1 -i 54 -a 1 -x {1.0 2.1 54 ------- null}
- -t 0.37 -s 1 -d 2 -p cbr -e 500 -c 1 -i 54 -a 1 -x {1.0 2.1 54 ------- null}
h -t 0.37 -s 1 -d 2 -p cbr -e 500 -c 1 -i 54 -a 1 -x {1.0 2.1 -1 ------- null}
r -t 0.372285714285714 -s 1 -d 2 -p cbr -e 500 -c 1 -i 50 -a 1 -x {1.0 2.1 50 ------- null}
+ -t 0.375 -s 1 -d 2 -p cbr -e 500 -c 1 -i 55 -a 1 -x {1.0 2.1 55 ------- null}
- -t 0.375 -s 1 -d 2 -p cbr -e 500 -c 1 -i 55 -a 1 -x {1.0 2.1 55 ------- null}
h -t 0.375 -s 1 -d 2 -p cbr -e 500 -c 1 -i 55 -a 1 -x {1.0 2.1 -1 ------- null}
r -t 0.377285714285715 -s 1 -d 2 -p cbr -e 500 -c 1 -i 51 -a 1 -x {1.0 2.1 51 ------- null}
+ -t 0.38 -s 1 -d 2 -p cbr -e 500 -c 1 -i 56 -a 1 -x {1.0 2.1 56 ------- null}
- -t 0.38 -s 1 -d 2 -p cbr -e 500 -c 1 -i 56 -a 1 -x {1.0 2.1 56 ------- null}
h -t 0.38 -s 1 -d 2 -p cbr -e 500 -c 1 -i 56 -a 1 -x {1.0 2.1 -1 ------- null}
r -t 0.382285714285715 -s 1 -d 2 -p cbr -e 500 -c 1 -i 52 -a 1 -x {1.0 2.1 52 ------- null}
+ -t 0.385 -s 1 -d 2 -p cbr -e 500 -c 1 -i 57 -a 1 -x {1.0 2.1 57 ------- null}
- -t 0.385 -s 1 -d 2 -p cbr -e 500 -c 1 -i 57 -a 1 -x {1.0 2.1 57 ------- null}
h -t 0.385 -s 1 -d 2 -p cbr -e 500 -c 1 -i 57 -a 1 -x {1.0 2.1 -1 ------- null}
r -t 0.387285714285715 -s 1 -d 2 -p cbr -e 500 -c 1 -i 53 -a 1 -x {1.0 2.1 53 ------- null}
+ -t 0.39 -s 1 -d 2 -p cbr -e 500 -c 1 -i 58 -a 1 -x {1.0 2.1 58 ------- null}
- -t 0.39 -s 1 -d 2 -p cbr -e 500 -c 1 -i 58 -a 1 -x {1.0 2.1 58 ------- null}
h -t 0.39 -s 1 -d 2 -p cbr -e 500 -c 1 -i 58 -a 1 -x {1.0 2.1 -1 ------- null}
r -t 0.392285714285715 -s 1 -d 2 -p cbr -e 500 -c 1 -i 54 -a 1 -x {1.0 2.1 54 ------- null}
+ -t 0.395 -s 1 -d 2 -p cbr -e 500 -c 1 -i 59 -a 1 -x {1.0 2.1 59 ------- null}
- -t 0.395 -s 1 -d 2 -p cbr -e 500 -c 1 -i 59 -a 1 -x {1.0 2.1 59 ------- null}
h -t 0.395 -s 1 -d 2 -p cbr -e 500 -c 1 -i 59 -a 1 -x {1.0 2.1 -1 ------- null}
r -t 0.397285714285715 -s 1 -d 2 -p cbr -e 500 -c 1 -i 55 -a 1 -x {1.0 2.1 55 ------- null}
+ -t 0.4 -s 1 -d 2 -p cbr -e 500 -c 1 -i 60 -a 1 -x {1.0 2.1 60 ------- null}
- -t 0.4 -s 1 -d 2 -p cbr -e 500 -c 1 -i 60 -a 1 -x {1.0 2.1 60 ------- null}
h -t 0.4 -s 1 -d 2 -p cbr -e 500 -c 1 -i 60 -a 1 -x {1.0 2.1 -1 ------- null}
r -t 0.402285714285715 -s 1 -d 2 -p cbr -e 500 -c 1 -i 56 -a 1 -x {1.0 2.1 56 ------- null}
+ -t 0.405 -s 1 -d 2 -p cbr -e 500 -c 1 -i 61 -a 1 -x {1.0 2.1 61 ------- null}
- -t 0.405 -s 1 -d 2 -p cbr -e 500 -c 1 -i 61 -a 1 -x {1.0 2.1 61 ------- null}
h -t 0.405 -s 1 -d 2 -p cbr -e 500 -c 1 -i 61 -a 1 -x {1.0 2.1 -1 ------- null}
r -t 0.407285714285715 -s 1 -d 2 -p cbr -e 500 -c 1 -i 57 -a 1 -x {1.0 2.1 57 ------- null}
+ -t 0.41 -s 1 -d 2 -p cbr -e 500 -c 1 -i 62 -a 1 -x {1.0 2.1 62 ------- null}
- -t 0.41 -s 1 -d 2 -p cbr -e 500 -c 1 -i 62 -a 1 -x {1.0 2.1 62 ------- null}
h -t 0.41 -s 1 -d 2 -p cbr -e 500 -c 1 -i 62 -a 1 -x {1.0 2.1 -1 ------- null}
r -t 0.412285714285715 -s 1 -d 2 -p cbr -e 500 -c 1 -i 58 -a 1 -x {1.0 2.1 58 ------- null}
+ -t 0.415 -s 1 -d 2 -p cbr -e 500 -c 1 -i 63 -a 1 -x {1.0 2.1 63 ------- null}
- -t 0.415 -s 1 -d 2 -p cbr -e 500 -c 1 -i 63 -a 1 -x {1.0 2.1 63 ------- null}
h -t 0.415 -s 1 -d 2 -p cbr -e 500 -c 1 -i 63 -a 1 -x {1.0 2.1 -1 ------- null}
r -t 0.417285714285715 -s 1 -d 2 -p cbr -e 500 -c 1 -i 59 -a 1 -x {1.0 2.1 59 ------- null}
+ -t 0.42 -s 1 -d 2 -p cbr -e 500 -c 1 -i 64 -a 1 -x {1.0 2.1 64 ------- null}
- -t 0.42 -s 1 -d 2 -p cbr -e 500 -c 1 -i 64 -a 1 -x {1.0 2.1 64 ------- null}
h -t 0.42 -s 1 -d 2 -p cbr -e 500 -c 1 -i 64 -a 1 -x {1.0 2.1 -1 ------- null}
r -t 0.422285714285715 -s 1 -d 2 -p cbr -e 500 -c 1 -i 60 -a 1 -x {1.0 2.1 60 ------- null}
+ -t 0.425 -s 1 -d 2 -p cbr -e 500 -c 1 -i 65 -a 1 -x {1.0 2.1 65 ------- null}
- -t 0.425 -s 1 -d 2 -p cbr -e 500 -c 1 -i 65 -a 1 -x {1.0 2.1 65 ------- null}
h -t 0.425 -s 1 -d 2 -p cbr -e 500 -c 1 -i 65 -a 1 -x {1.0 2.1 -1 ------- null}
r -t 0.427285714285715 -s 1 -d 2 -p cbr -e 500 -c 1 -i 61 -a 1 -x {1.0 2.1 61 ------- null}
+ -t 0.43 -s 1 -d 2 -p cbr -e 500 -c 1 -i 66 -a 1 -x {1.0 2.1 66 ------- null}
- -t 0.43 -s 1 -d 2 -p cbr -e 500 -c 1 -i 66 -a 1 -x {1.0 2.1 66 ------- null}
h -t 0.43 -s 1 -d 2 -p cbr -e 500 -c 1 -i 66 -a 1 -x {1.0 2.1 -1 ------- null}
r -t 0.432285714285715 -s 1 -d 2 -p cbr -e 500 -c 1 -i 62 -a 1 -x {1.0 2.1 62 ------- null}
+ -t 0.435 -s 1 -d 2 -p cbr -e 500 -c 1 -i 67 -a 1 -x {1.0 2.1 67 ------- null}
- -t 0.435 -s 1 -d 2 -p cbr -e 500 -c 1 -i 67 -a 1 -x {1.0 2.1 67 ------- null}
h -t 0.435 -s 1 -d 2 -p cbr -e 500 -c 1 -i 67 -a 1 -x {1.0 2.1 -1 ------- null}
r -t 0.437285714285715 -s 1 -d 2 -p cbr -e 500 -c 1 -i 63 -a 1 -x {1.0 2.1 63 ------- null}
+ -t 0.44 -s 1 -d 2 -p cbr -e 500 -c 1 -i 68 -a 1 -x {1.0 2.1 68 ------- null}
- -t 0.44 -s 1 -d 2 -p cbr -e 500 -c 1 -i 68 -a 1 -x {1.0 2.1 68 ------- null}
h -t 0.44 -s 1 -d 2 -p cbr -e 500 -c 1 -i 68 -a 1 -x {1.0 2.1 -1 ------- null}
r -t 0.442285714285715 -s 1 -d 2 -p cbr -e 500 -c 1 -i 64 -a 1 -x {1.0 2.1 64 ------- null}
+ -t 0.445 -s 1 -d 2 -p cbr -e 500 -c 1 -i 69 -a 1 -x {1.0 2.1 69 ------- null}
- -t 0.445 -s 1 -d 2 -p cbr -e 500 -c 1 -i 69 -a 1 -x {1.0 2.1 69 ------- null}
h -t 0.445 -s 1 -d 2 -p cbr -e 500 -c 1 -i 69 -a 1 -x {1.0 2.1 -1 ------- null}
r -t 0.447285714285715 -s 1 -d 2 -p cbr -e 500 -c 1 -i 65 -a 1 -x {1.0 2.1 65 ------- null}
+ -t 0.45 -s 1 -d 2 -p cbr -e 500 -c 1 -i 70 -a 1 -x {1.0 2.1 70 ------- null}
- -t 0.45 -s 1 -d 2 -p cbr -e 500 -c 1 -i 70 -a 1 -x {1.0 2.1 70 ------- null}
h -t 0.45 -s 1 -d 2 -p cbr -e 500 -c 1 -i 70 -a 1 -x {1.0 2.1 -1 ------- null}
r -t 0.452285714285715 -s 1 -d 2 -p cbr -e 500 -c 1 -i 66 -a 1 -x {1.0 2.1 66 ------- null}
+ -t 0.455 -s 1 -d 2 -p cbr -e 500 -c 1 -i 71 -a 1 -x {1.0 2.1 71 ------- null}
- -t 0.455 -s 1 -d 2 -p cbr -e 500 -c 1 -i 71 -a 1 -x {1.0 2.1 71 ------- null}
h -t 0.455 -s 1 -d 2 -p cbr -e 500 -c 1 -i 71 -a 1 -x {1.0 2.1 -1 ------- null}
r -t 0.457285714285715 -s 1 -d 2 -p cbr -e 500 -c 1 -i 67 -a 1 -x {1.0 2.1 67 ------- null}
+ -t 0.46 -s 1 -d 2 -p cbr -e 500 -c 1 -i 72 -a 1 -x {1.0 2.1 72 ------- null}
- -t 0.46 -s 1 -d 2 -p cbr -e 500 -c 1 -i 72 -a 1 -x {1.0 2.1 72 ------- null}
h -t 0.46 -s 1 -d 2 -p cbr -e 500 -c 1 -i 72 -a 1 -x {1.0 2.1 -1 ------- null}
r -t 0.462285714285715 -s 1 -d 2 -p cbr -e 500 -c 1 -i 68 -a 1 -x {1.0 2.1 68 ------- null}
+ -t 0.465 -s 1 -d 2 -p cbr -e 500 -c 1 -i 73 -a 1 -x {1.0 2.1 73 ------- null}
- -t 0.465 -s 1 -d 2 -p cbr -e 500 -c 1 -i 73 -a 1 -x {1.0 2.1 73 ------- null}
h -t 0.465 -s 1 -d 2 -p cbr -e 500 -c 1 -i 73 -a 1 -x {1.0 2.1 -1 ------- null}
r -t 0.467285714285715 -s 1 -d 2 -p cbr -e 500 -c 1 -i 69 -a 1 -x {1.0 2.1 69 ------- null}
+ -t 0.47 -s 1 -d 2 -p cbr -e 500 -c 1 -i 74 -a 1 -x {1.0 2.1 74 ------- null}
- -t 0.47 -s 1 -d 2 -p cbr -e 500 -c 1 -i 74 -a 1 -x {1.0 2.1 74 ------- null}
h -t 0.47 -s 1 -d 2 -p cbr -e 500 -c 1 -i 74 -a 1 -x {1.0 2.1 -1 ------- null}
r -t 0.472285714285715 -s 1 -d 2 -p cbr -e 500 -c 1 -i 70 -a 1 -x {1.0 2.1 70 ------- null}
+ -t 0.475 -s 1 -d 2 -p cbr -e 500 -c 1 -i 75 -a 1 -x {1.0 2.1 75 ------- null}
- -t 0.475 -s 1 -d 2 -p cbr -e 500 -c 1 -i 75 -a 1 -x {1.0 2.1 75 ------- null}
h -t 0.475 -s 1 -d 2 -p cbr -e 500 -c 1 -i 75 -a 1 -x {1.0 2.1 -1 ------- null}
r -t 0.477285714285715 -s 1 -d 2 -p cbr -e 500 -c 1 -i 71 -a 1 -x {1.0 2.1 71 ------- null}
+ -t 0.48 -s 1 -d 2 -p cbr -e 500 -c 1 -i 76 -a 1 -x {1.0 2.1 76 ------- null}
- -t 0.48 -s 1 -d 2 -p cbr -e 500 -c 1 -i 76 -a 1 -x {1.0 2.1 76 ------- null}
h -t 0.48 -s 1 -d 2 -p cbr -e 500 -c 1 -i 76 -a 1 -x {1.0 2.1 -1 ------- null}
r -t 0.482285714285715 -s 1 -d 2 -p cbr -e 500 -c 1 -i 72 -a 1 -x {1.0 2.1 72 ------- null}
+ -t 0.485 -s 1 -d 2 -p cbr -e 500 -c 1 -i 77 -a 1 -x {1.0 2.1 77 ------- null}
- -t 0.485 -s 1 -d 2 -p cbr -e 500 -c 1 -i 77 -a 1 -x {1.0 2.1 77 ------- null}
h -t 0.485 -s 1 -d 2 -p cbr -e 500 -c 1 -i 77 -a 1 -x {1.0 2.1 -1 ------- null}
r -t 0.487285714285715 -s 1 -d 2 -p cbr -e 500 -c 1 -i 73 -a 1 -x {1.0 2.1 73 ------- null}
+ -t 0.49 -s 1 -d 2 -p cbr -e 500 -c 1 -i 78 -a 1 -x {1.0 2.1 78 ------- null}
- -t 0.49 -s 1 -d 2 -p cbr -e 500 -c 1 -i 78 -a 1 -x {1.0 2.1 78 ------- null}
h -t 0.49 -s 1 -d 2 -p cbr -e 500 -c 1 -i 78 -a 1 -x {1.0 2.1 -1 ------- null}
r -t 0.492285714285715 -s 1 -d 2 -p cbr -e 500 -c 1 -i 74 -a 1 -x {1.0 2.1 74 ------- null}
+ -t 0.495 -s 1 -d 2 -p cbr -e 500 -c 1 -i 79 -a 1 -x {1.0 2.1 79 ------- null}
- -t 0.495 -s 1 -d 2 -p cbr -e 500 -c 1 -i 79 -a 1 -x {1.0 2.1 79 ------- null}
h -t 0.495 -s 1 -d 2 -p cbr -e 500 -c 1 -i 79 -a 1 -x {1.0 2.1 -1 ------- null}
r -t 0.497285714285715 -s 1 -d 2 -p cbr -e 500 -c 1 -i 75 -a 1 -x {1.0 2.1 75 ------- null}
+ -t 0.5 -s 1 -d 2 -p cbr -e 500 -c 1 -i 80 -a 1 -x {1.0 2.1 80 ------- null}
- -t 0.5 -s 1 -d 2 -p cbr -e 500 -c 1 -i 80 -a 1 -x {1.0 2.1 80 ------- null}
h -t 0.5 -s 1 -d 2 -p cbr -e 500 -c 1 -i 80 -a 1 -x {1.0 2.1 -1 ------- null}
r -t 0.502285714285715 -s 1 -d 2 -p cbr -e 500 -c 1 -i 76 -a 1 -x {1.0 2.1 76 ------- null}
+ -t 0.505 -s 1 -d 2 -p cbr -e 500 -c 1 -i 81 -a 1 -x {1.0 2.1 81 ------- null}
- -t 0.505 -s 1 -d 2 -p cbr -e 500 -c 1 -i 81 -a 1 -x {1.0 2.1 81 ------- null}
h -t 0.505 -s 1 -d 2 -p cbr -e 500 -c 1 -i 81 -a 1 -x {1.0 2.1 -1 ------- null}
r -t 0.507285714285715 -s 1 -d 2 -p cbr -e 500 -c 1 -i 77 -a 1 -x {1.0 2.1 77 ------- null}
+ -t 0.51 -s 1 -d 2 -p cbr -e 500 -c 1 -i 82 -a 1 -x {1.0 2.1 82 ------- null}
- -t 0.51 -s 1 -d 2 -p cbr -e 500 -c 1 -i 82 -a 1 -x {1.0 2.1 82 ------- null}
h -t 0.51 -s 1 -d 2 -p cbr -e 500 -c 1 -i 82 -a 1 -x {1.0 2.1 -1 ------- null}
r -t 0.512285714285715 -s 1 -d 2 -p cbr -e 500 -c 1 -i 78 -a 1 -x {1.0 2.1 78 ------- null}
+ -t 0.515 -s 1 -d 2 -p cbr -e 500 -c 1 -i 83 -a 1 -x {1.0 2.1 83 ------- null}
- -t 0.515 -s 1 -d 2 -p cbr -e 500 -c 1 -i 83 -a 1 -x {1.0 2.1 83 ------- null}
h -t 0.515 -s 1 -d 2 -p cbr -e 500 -c 1 -i 83 -a 1 -x {1.0 2.1 -1 ------- null}
r -t 0.517285714285715 -s 1 -d 2 -p cbr -e 500 -c 1 -i 79 -a 1 -x {1.0 2.1 79 ------- null}
+ -t 0.52 -s 1 -d 2 -p cbr -e 500 -c 1 -i 84 -a 1 -x {1.0 2.1 84 ------- null}
- -t 0.52 -s 1 -d 2 -p cbr -e 500 -c 1 -i 84 -a 1 -x {1.0 2.1 84 ------- null}
h -t 0.52 -s 1 -d 2 -p cbr -e 500 -c 1 -i 84 -a 1 -x {1.0 2.1 -1 ------- null}
r -t 0.522285714285715 -s 1 -d 2 -p cbr -e 500 -c 1 -i 80 -a 1 -x {1.0 2.1 80 ------- null}
+ -t 0.525 -s 1 -d 2 -p cbr -e 500 -c 1 -i 85 -a 1 -x {1.0 2.1 85 ------- null}
- -t 0.525 -s 1 -d 2 -p cbr -e 500 -c 1 -i 85 -a 1 -x {1.0 2.1 85 ------- null}
h -t 0.525 -s 1 -d 2 -p cbr -e 500 -c 1 -i 85 -a 1 -x {1.0 2.1 -1 ------- null}
r -t 0.527285714285715 -s 1 -d 2 -p cbr -e 500 -c 1 -i 81 -a 1 -x {1.0 2.1 81 ------- null}
+ -t 0.53 -s 1 -d 2 -p cbr -e 500 -c 1 -i 86 -a 1 -x {1.0 2.1 86 ------- null}
- -t 0.53 -s 1 -d 2 -p cbr -e 500 -c 1 -i 86 -a 1 -x {1.0 2.1 86 ------- null}
h -t 0.53 -s 1 -d 2 -p cbr -e 500 -c 1 -i 86 -a 1 -x {1.0 2.1 -1 ------- null}
r -t 0.532285714285715 -s 1 -d 2 -p cbr -e 500 -c 1 -i 82 -a 1 -x {1.0 2.1 82 ------- null}
+ -t 0.535 -s 1 -d 2 -p cbr -e 500 -c 1 -i 87 -a 1 -x {1.0 2.1 87 ------- null}
- -t 0.535 -s 1 -d 2 -p cbr -e 500 -c 1 -i 87 -a 1 -x {1.0 2.1 87 ------- null}
h -t 0.535 -s 1 -d 2 -p cbr -e 500 -c 1 -i 87 -a 1 -x {1.0 2.1 -1 ------- null}
r -t 0.537285714285715 -s 1 -d 2 -p cbr -e 500 -c 1 -i 83 -a 1 -x {1.0 2.1 83 ------- null}
+ -t 0.54 -s 1 -d 2 -p cbr -e 500 -c 1 -i 88 -a 1 -x {1.0 2.1 88 ------- null}
- -t 0.54 -s 1 -d 2 -p cbr -e 500 -c 1 -i 88 -a 1 -x {1.0 2.1 88 ------- null}
h -t 0.54 -s 1 -d 2 -p cbr -e 500 -c 1 -i 88 -a 1 -x {1.0 2.1 -1 ------- null}
r -t 0.542285714285715 -s 1 -d 2 -p cbr -e 500 -c 1 -i 84 -a 1 -x {1.0 2.1 84 ------- null}
+ -t 0.545 -s 1 -d 2 -p cbr -e 500 -c 1 -i 89 -a 1 -x {1.0 2.1 89 ------- null}
- -t 0.545 -s 1 -d 2 -p cbr -e 500 -c 1 -i 89 -a 1 -x {1.0 2.1 89 ------- null}
h -t 0.545 -s 1 -d 2 -p cbr -e 500 -c 1 -i 89 -a 1 -x {1.0 2.1 -1 ------- null}
r -t 0.547285714285715 -s 1 -d 2 -p cbr -e 500 -c 1 -i 85 -a 1 -x {1.0 2.1 85 ------- null}
+ -t 0.55 -s 1 -d 2 -p cbr -e 500 -c 1 -i 90 -a 1 -x {1.0 2.1 90 ------- null}
- -t 0.55 -s 1 -d 2 -p cbr -e 500 -c 1 -i 90 -a 1 -x {1.0 2.1 90 ------- null}