+ 0.1 1 2 cbr 500 ------- 1 1.0 2.1 0 0
- 0.1 1 2 cbr 500 ------- 1 1.0 2.1 0 0
+ 0.105 1 2 cbr 500 ------- 1 1.0 2.1 1 1
- 0.105 1 2 cbr 500 ------- 1 1.0 2.1 1 1
+ 0.11 1 2 cbr 500 ------- 1 1.0 2.1 2 2
- 0.11 1 2 cbr 500 ------- 1 1.0 2.1 2 2
+ 0.115 1 2 cbr 500 ------- 1 1.0 2.1 3 3
- 0.115 1 2 cbr 500 ------- 1 1.0 2.1 3 3
+ 0.12 1 2 cbr 500 ------- 1 1.0 2.1 4 4
- 0.12 1 2 cbr 500 ------- 1 1.0 2.1 4 4
r 0.122286 1 2 cbr 500 ------- 1 1.0 2.1 0 0
+ 0.125 1 2 cbr 500 ------- 1 1.0 2.1 5 5
- 0.125 1 2 cbr 500 ------- 1 1.0 2.1 5 5
r 0.127286 1 2 cbr 500 ------- 1 1.0 2.1 1 1
+ 0.13 1 2 cbr 500 ------- 1 1.0 2.1 6 6
- 0.13 1 2 cbr 500 ------- 1 1.0 2.1 6 6
r 0.132286 1 2 cbr 500 ------- 1 1.0 2.1 2 2
+ 0.135 1 2 cbr 500 ------- 1 1.0 2.1 7 7
- 0.135 1 2 cbr 500 ------- 1 1.0 2.1 7 7
r 0.137286 1 2 cbr 500 ------- 1 1.0 2.1 3 3
+ 0.14 1 2 cbr 500 ------- 1 1.0 2.1 8 8
- 0.14 1 2 cbr 500 ------- 1 1.0 2.1 8 8
r 0.142286 1 2 cbr 500 ------- 1 1.0 2.1 4 4
+ 0.145 1 2 cbr 500 ------- 1 1.0 2.1 9 9
- 0.145 1 2 cbr 500 ------- 1 1.0 2.1 9 9
r 0.147286 1 2 cbr 500 ------- 1 1.0 2.1 5 5
+ 0.15 1 2 cbr 500 ------- 1 1.0 2.1 10 10
- 0.15 1 2 cbr 500 ------- 1 1.0 2.1 10 10
r 0.152286 1 2 cbr 500 ------- 1 1.0 2.1 6 6
+ 0.155 1 2 cbr 500 ------- 1 1.0 2.1 11 11
- 0.155 1 2 cbr 500 ------- 1 1.0 2.1 11 11
r 0.157286 1 2 cbr 500 ------- 1 1.0 2.1 7 7
+ 0.16 1 2 cbr 500 ------- 1 1.0 2.1 12 12
- 0.16 1 2 cbr 500 ------- 1 1.0 2.1 12 12
r 0.162286 1 2 cbr 500 ------- 1 1.0 2.1 8 8
+ 0.165 1 2 cbr 500 ------- 1 1.0 2.1 13 13
- 0.165 1 2 cbr 500 ------- 1 1.0 2.1 13 13
r 0.167286 1 2 cbr 500 ------- 1 1.0 2.1 9 9
+ 0.17 1 2 cbr 500 ------- 1 1.0 2.1 14 14
- 0.17 1 2 cbr 500 ------- 1 1.0 2.1 14 14
r 0.172286 1 2 cbr 500 ------- 1 1.0 2.1 10 10
+ 0.175 1 2 cbr 500 ------- 1 1.0 2.1 15 15
- 0.175 1 2 cbr 500 ------- 1 1.0 2.1 15 15
r 0.177286 1 2 cbr 500 ------- 1 1.0 2.1 11 11
+ 0.18 1 2 cbr 500 ------- 1 1.0 2.1 16 16
- 0.18 1 2 cbr 500 ------- 1 1.0 2.1 16 16
r 0.182286 1 2 cbr 500 ------- 1 1.0 2.1 12 12
+ 0.185 1 2 cbr 500 ------- 1 1.0 2.1 17 17
- 0.185 1 2 cbr 500 ------- 1 1.0 2.1 17 17
r 0.187286 1 2 cbr 500 ------- 1 1.0 2.1 13 13
+ 0.19 1 2 cbr 500 ------- 1 1.0 2.1 18 18
- 0.19 1 2 cbr 500 ------- 1 1.0 2.1 18 18
r 0.192286 1 2 cbr 500 ------- 1 1.0 2.1 14 14
+ 0.195 1 2 cbr 500 ------- 1 1.0 2.1 19 19
- 0.195 1 2 cbr 500 ------- 1 1.0 2.1 19 19
r 0.197286 1 2 cbr 500 ------- 1 1.0 2.1 15 15
+ 0.2 1 2 cbr 500 ------- 1 1.0 2.1 20 20
- 0.2 1 2 cbr 500 ------- 1 1.0 2.1 20 20
r 0.202286 1 2 cbr 500 ------- 1 1.0 2.1 16 16
+ 0.205 1 2 cbr 500 ------- 1 1.0 2.1 21 21
- 0.205 1 2 cbr 500 ------- 1 1.0 2.1 21 21
r 0.207286 1 2 cbr 500 ------- 1 1.0 2.1 17 17
+ 0.21 1 2 cbr 500 ------- 1 1.0 2.1 22 22
- 0.21 1 2 cbr 500 ------- 1 1.0 2.1 22 22
r 0.212286 1 2 cbr 500 ------- 1 1.0 2.1 18 18
+ 0.215 1 2 cbr 500 ------- 1 1.0 2.1 23 23
- 0.215 1 2 cbr 500 ------- 1 1.0 2.1 23 23
r 0.217286 1 2 cbr 500 ------- 1 1.0 2.1 19 19
+ 0.22 1 2 cbr 500 ------- 1 1.0 2.1 24 24
- 0.22 1 2 cbr 500 ------- 1 1.0 2.1 24 24
r 0.222286 1 2 cbr 500 ------- 1 1.0 2.1 20 20
+ 0.225 1 2 cbr 500 ------- 1 1.0 2.1 25 25
- 0.225 1 2 cbr 500 ------- 1 1.0 2.1 25 25
r 0.227286 1 2 cbr 500 ------- 1 1.0 2.1 21 21
+ 0.23 1 2 cbr 500 ------- 1 1.0 2.1 26 26
- 0.23 1 2 cbr 500 ------- 1 1.0 2.1 26 26
r 0.232286 1 2 cbr 500 ------- 1 1.0 2.1 22 22
+ 0.235 1 2 cbr 500 ------- 1 1.0 2.1 27 27
- 0.235 1 2 cbr 500 ------- 1 1.0 2.1 27 27
r 0.237286 1 2 cbr 500 ------- 1 1.0 2.1 23 23
+ 0.24 1 2 cbr 500 ------- 1 1.0 2.1 28 28
- 0.24 1 2 cbr 500 ------- 1 1.0 2.1 28 28
r 0.242286 1 2 cbr 500 ------- 1 1.0 2.1 24 24
+ 0.245 1 2 cbr 500 ------- 1 1.0 2.1 29 29
- 0.245 1 2 cbr 500 ------- 1 1.0 2.1 29 29
r 0.247286 1 2 cbr 500 ------- 1 1.0 2.1 25 25
+ 0.25 1 2 cbr 500 ------- 1 1.0 2.1 30 30
- 0.25 1 2 cbr 500 ------- 1 1.0 2.1 30 30
r 0.252286 1 2 cbr 500 ------- 1 1.0 2.1 26 26
+ 0.255 1 2 cbr 500 ------- 1 1.0 2.1 31 31
- 0.255 1 2 cbr 500 ------- 1 1.0 2.1 31 31
r 0.257286 1 2 cbr 500 ------- 1 1.0 2.1 27 27
+ 0.26 1 2 cbr 500 ------- 1 1.0 2.1 32 32
- 0.26 1 2 cbr 500 ------- 1 1.0 2.1 32 32
r 0.262286 1 2 cbr 500 ------- 1 1.0 2.1 28 28
+ 0.265 1 2 cbr 500 ------- 1 1.0 2.1 33 33
- 0.265 1 2 cbr 500 ------- 1 1.0 2.1 33 33
r 0.267286 1 2 cbr 500 ------- 1 1.0 2.1 29 29
+ 0.27 1 2 cbr 500 ------- 1 1.0 2.1 34 34
- 0.27 1 2 cbr 500 ------- 1 1.0 2.1 34 34
r 0.272286 1 2 cbr 500 ------- 1 1.0 2.1 30 30
+ 0.275 1 2 cbr 500 ------- 1 1.0 2.1 35 35
- 0.275 1 2 cbr 500 ------- 1 1.0 2.1 35 35
r 0.277286 1 2 cbr 500 ------- 1 1.0 2.1 31 31
+ 0.28 1 2 cbr 500 ------- 1 1.0 2.1 36 36
- 0.28 1 2 cbr 500 ------- 1 1.0 2.1 36 36
r 0.282286 1 2 cbr 500 ------- 1 1.0 2.1 32 32
+ 0.285 1 2 cbr 500 ------- 1 1.0 2.1 37 37
- 0.285 1 2 cbr 500 ------- 1 1.0 2.1 37 37
r 0.287286 1 2 cbr 500 ------- 1 1.0 2.1 33 33
+ 0.29 1 2 cbr 500 ------- 1 1.0 2.1 38 38
- 0.29 1 2 cbr 500 ------- 1 1.0 2.1 38 38
r 0.292286 1 2 cbr 500 ------- 1 1.0 2.1 34 34
+ 0.295 1 2 cbr 500 ------- 1 1.0 2.1 39 39
- 0.295 1 2 cbr 500 ------- 1 1.0 2.1 39 39
r 0.297286 1 2 cbr 500 ------- 1 1.0 2.1 35 35
+ 0.3 1 2 cbr 500 ------- 1 1.0 2.1 40 40
- 0.3 1 2 cbr 500 ------- 1 1.0 2.1 40 40
r 0.302286 1 2 cbr 500 ------- 1 1.0 2.1 36 36
+ 0.305 1 2 cbr 500 ------- 1 1.0 2.1 41 41
- 0.305 1 2 cbr 500 ------- 1 1.0 2.1 41 41
r 0.307286 1 2 cbr 500 ------- 1 1.0 2.1 37 37
+ 0.31 1 2 cbr 500 ------- 1 1.0 2.1 42 42
- 0.31 1 2 cbr 500 ------- 1 1.0 2.1 42 42
r 0.312286 1 2 cbr 500 ------- 1 1.0 2.1 38 38
+ 0.315 1 2 cbr 500 ------- 1 1.0 2.1 43 43
- 0.315 1 2 cbr 500 ------- 1 1.0 2.1 43 43
r 0.317286 1 2 cbr 500 ------- 1 1.0 2.1 39 39
+ 0.32 1 2 cbr 500 ------- 1 1.0 2.1 44 44
- 0.32 1 2 cbr 500 ------- 1 1.0 2.1 44 44
r 0.322286 1 2 cbr 500 ------- 1 1.0 2.1 40 40
+ 0.325 1 2 cbr 500 ------- 1 1.0 2.1 45 45
- 0.325 1 2 cbr 500 ------- 1 1.0 2.1 45 45
r 0.327286 1 2 cbr 500 ------- 1 1.0 2.1 41 41
+ 0.33 1 2 cbr 500 ------- 1 1.0 2.1 46 46
- 0.33 1 2 cbr 500 ------- 1 1.0 2.1 46 46
r 0.332286 1 2 cbr 500 ------- 1 1.0 2.1 42 42
+ 0.335 1 2 cbr 500 ------- 1 1.0 2.1 47 47
- 0.335 1 2 cbr 500 ------- 1 1.0 2.1 47 47
r 0.337286 1 2 cbr 500 ------- 1 1.0 2.1 43 43
+ 0.34 1 2 cbr 500 ------- 1 1.0 2.1 48 48
- 0.34 1 2 cbr 500 ------- 1 1.0 2.1 48 48
r 0.342286 1 2 cbr 500 ------- 1 1.0 2.1 44 44
+ 0.345 1 2 cbr 500 ------- 1 1.0 2.1 49 49
- 0.345 1 2 cbr 500 ------- 1 1.0 2.1 49 49
r 0.347286 1 2 cbr 500 ------- 1 1.0 2.1 45 45
+ 0.35 1 2 cbr 500 ------- 1 1.0 2.1 50 50
- 0.35 1 2 cbr 500 ------- 1 1.0 2.1 50 50
r 0.352286 1 2 cbr 500 ------- 1 1.0 2.1 46 46
+ 0.355 1 2 cbr 500 ------- 1 1.0 2.1 51 51
- 0.355 1 2 cbr 500 ------- 1 1.0 2.1 51 51
r 0.357286 1 2 cbr 500 ------- 1 1.0 2.1 47 47
+ 0.36 1 2 cbr 500 ------- 1 1.0 2.1 52 52
- 0.36 1 2 cbr 500 ------- 1 1.0 2.1 52 52
r 0.362286 1 2 cbr 500 ------- 1 1.0 2.1 48 48
+ 0.365 1 2 cbr 500 ------- 1 1.0 2.1 53 53
- 0.365 1 2 cbr 500 ------- 1 1.0 2.1 53 53
r 0.367286 1 2 cbr 500 ------- 1 1.0 2.1 49 49
+ 0.37 1 2 cbr 500 ------- 1 1.0 2.1 54 54
- 0.37 1 2 cbr 500 ------- 1 1.0 2.1 54 54
r 0.372286 1 2 cbr 500 ------- 1 1.0 2.1 50 50
+ 0.375 1 2 cbr 500 ------- 1 1.0 2.1 55 55
- 0.375 1 2 cbr 500 ------- 1 1.0 2.1 55 55
r 0.377286 1 2 cbr 500 ------- 1 1.0 2.1 51 51
+ 0.38 1 2 cbr 500 ------- 1 1.0 2.1 56 56
- 0.38 1 2 cbr 500 ------- 1 1.0 2.1 56 56
r 0.382286 1 2 cbr 500 ------- 1 1.0 2.1 52 52
+ 0.385 1 2 cbr 500 ------- 1 1.0 2.1 57 57
- 0.385 1 2 cbr 500 ------- 1 1.0 2.1 57 57
r 0.387286 1 2 cbr 500 ------- 1 1.0 2.1 53 53
+ 0.39 1 2 cbr 500 ------- 1 1.0 2.1 58 58
- 0.39 1 2 cbr 500 ------- 1 1.0 2.1 58 58
r 0.392286 1 2 cbr 500 ------- 1 1.0 2.1 54 54
+ 0.395 1 2 cbr 500 ------- 1 1.0 2.1 59 59
- 0.395 1 2 cbr 500 ------- 1 1.0 2.1 59 59
r 0.397286 1 2 cbr 500 ------- 1 1.0 2.1 55 55
+ 0.4 1 2 cbr 500 ------- 1 1.0 2.1 60 60
- 0.4 1 2 cbr 500 ------- 1 1.0 2.1 60 60
r 0.402286 1 2 cbr 500 ------- 1 1.0 2.1 56 56
+ 0.405 1 2 cbr 500 ------- 1 1.0 2.1 61 61
- 0.405 1 2 cbr 500 ------- 1 1.0 2.1 61 61
r 0.407286 1 2 cbr 500 ------- 1 1.0 2.1 57 57
+ 0.41 1 2 cbr 500 ------- 1 1.0 2.1 62 62
- 0.41 1 2 cbr 500 ------- 1 1.0 2.1 62 62
r 0.412286 1 2 cbr 500 ------- 1 1.0 2.1 58 58
+ 0.415 1 2 cbr 500 ------- 1 1.0 2.1 63 63
- 0.415 1 2 cbr 500 ------- 1 1.0 2.1 63 63
r 0.417286 1 2 cbr 500 ------- 1 1.0 2.1 59 59
+ 0.42 1 2 cbr 500 ------- 1 1.0 2.1 64 64
- 0.42 1 2 cbr 500 ------- 1 1.0 2.1 64 64
r 0.422286 1 2 cbr 500 ------- 1 1.0 2.1 60 60
+ 0.425 1 2 cbr 500 ------- 1 1.0 2.1 65 65
- 0.425 1 2 cbr 500 ------- 1 1.0 2.1 65 65
r 0.427286 1 2 cbr 500 ------- 1 1.0 2.1 61 61
+ 0.43 1 2 cbr 500 ------- 1 1.0 2.1 66 66
- 0.43 1 2 cbr 500 ------- 1 1.0 2.1 66 66
r 0.432286 1 2 cbr 500 ------- 1 1.0 2.1 62 62
+ 0.435 1 2 cbr 500 ------- 1 1.0 2.1 67 67
- 0.435 1 2 cbr 500 ------- 1 1.0 2.1 67 67
r 0.437286 1 2 cbr 500 ------- 1 1.0 2.1 63 63
+ 0.44 1 2 cbr 500 ------- 1 1.0 2.1 68 68
- 0.44 1 2 cbr 500 ------- 1 1.0 2.1 68 68
r 0.442286 1 2 cbr 500 ------- 1 1.0 2.1 64 64
+ 0.445 1 2 cbr 500 ------- 1 1.0 2.1 69 69
- 0.445 1 2 cbr 500 ------- 1 1.0 2.1 69 69
r 0.447286 1 2 cbr 500 ------- 1 1.0 2.1 65 65
+ 0.45 1 2 cbr 500 ------- 1 1.0 2.1 70 70
- 0.45 1 2 cbr 500 ------- 1 1.0 2.1 70 70
r 0.452286 1 2 cbr 500 ------- 1 1.0 2.1 66 66
+ 0.455 1 2 cbr 500 ------- 1 1.0 2.1 71 71
- 0.455 1 2 cbr 500 ------- 1 1.0 2.1 71 71
r 0.457286 1 2 cbr 500 ------- 1 1.0 2.1 67 67
+ 0.46 1 2 cbr 500 ------- 1 1.0 2.1 72 72
- 0.46 1 2 cbr 500 ------- 1 1.0 2.1 72 72
r 0.462286 1 2 cbr 500 ------- 1 1.0 2.1 68 68
+ 0.465 1 2 cbr 500 ------- 1 1.0 2.1 73 73
- 0.465 1 2 cbr 500 ------- 1 1.0 2.1 73 73
r 0.467286 1 2 cbr 500 ------- 1 1.0 2.1 69 69
+ 0.47 1 2 cbr 500 ------- 1 1.0 2.1 74 74
- 0.47 1 2 cbr 500 ------- 1 1.0 2.1 74 74
r 0.472286 1 2 cbr 500 ------- 1 1.0 2.1 70 70
+ 0.475 1 2 cbr 500 ------- 1 1.0 2.1 75 75
- 0.475 1 2 cbr 500 ------- 1 1.0 2.1 75 75
r 0.477286 1 2 cbr 500 ------- 1 1.0 2.1 71 71
+ 0.48 1 2 cbr 500 ------- 1 1.0 2.1 76 76
- 0.48 1 2 cbr 500 ------- 1 1.0 2.1 76 76
r 0.482286 1 2 cbr 500 ------- 1 1.0 2.1 72 72
+ 0.485 1 2 cbr 500 ------- 1 1.0 2.1 77 77
- 0.485 1 2 cbr 500 ------- 1 1.0 2.1 77 77
r 0.487286 1 2 cbr 500 ------- 1 1.0 2.1 73 73
+ 0.49 1 2 cbr 500 ------- 1 1.0 2.1 78 78
- 0.49 1 2 cbr 500 ------- 1 1.0 2.1 78 78
r 0.492286 1 2 cbr 500 ------- 1 1.0 2.1 74 74
+ 0.495 1 2 cbr 500 ------- 1 1.0 2.1 79 79
- 0.495 1 2 cbr 500 ------- 1 1.0 2.1 79 79
r 0.497286 1 2 cbr 500 ------- 1 1.0 2.1 75 75
+ 0.5 1 2 cbr 500 ------- 1 1.0 2.1 80 80
- 0.5 1 2 cbr 500 ------- 1 1.0 2.1 80 80
r 0.502286 1 2 cbr 500 ------- 1 1.0 2.1 76 76
+ 0.505 1 2 cbr 500 ------- 1 1.0 2.1 81 81
- 0.505 1 2 cbr 500 ------- 1 1.0 2.1 81 81
r 0.507286 1 2 cbr 500 ------- 1 1.0 2.1 77 77
+ 0.51 1 2 cbr 500 ------- 1 1.0 2.1 82 82
- 0.51 1 2 cbr 500 ------- 1 1.0 2.1 82 82
r 0.512286 1 2 cbr 500 ------- 1 1.0 2.1 78 78
+ 0.515 1 2 cbr 500 ------- 1 1.0 2.1 83 83
- 0.515 1 2 cbr 500 ------- 1 1.0 2.1 83 83
r 0.517286 1 2 cbr 500 ------- 1 1.0 2.1 79 79
+ 0.52 1 2 cbr 500 ------- 1 1.0 2.1 84 84
- 0.52 1 2 cbr 500 ------- 1 1.0 2.1 84 84
r 0.522286 1 2 cbr 500 ------- 1 1.0 2.1 80 80
+ 0.525 1 2 cbr 500 ------- 1 1.0 2.1 85 85
- 0.525 1 2 cbr 500 ------- 1 1.0 2.1 85 85
r 0.527286 1 2 cbr 500 ------- 1 1.0 2.1 81 81
+ 0.53 1 2 cbr 500 ------- 1 1.0 2.1 86 86
- 0.53 1 2 cbr 500 ------- 1 1.0 2.1 86 86
r 0.532286 1 2 cbr 500 ------- 1 1.0 2.1 82 82
+ 0.535 1 2 cbr 500 ------- 1 1.0 2.1 87 87
- 0.535 1 2 cbr 500 ------- 1 1.0 2.1 87 87
r 0.537286 1 2 cbr 500 ------- 1 1.0 2.1 83 83
+ 0.54 1 2 cbr 500 ------- 1 1.0 2.1 88 88
- 0.54 1 2 cbr 500 ------- 1 1.0 2.1 88 88
r 0.542286 1 2 cbr 500 ------- 1 1.0 2.1 84 84
+ 0.545 1 2 cbr 500 ------- 1 1.0 2.1 89 89
- 0.545 1 2 cbr 500 ------- 1 1.0 2.1 89 89
r 0.547286 1 2 cbr 500 ------- 1 1.0 2.1 85 85
+ 0.55 1 2 cbr 500 ------- 1 1.0 2.1 90 90
- 0.55 1 2 cbr 500 ------- 1 1.0 2.1 90 90
r 0.552286 1 2 cbr 500 ------- 1 1.0 2.1 86 86
+ 0.555 1 2 cbr 500 ------- 1 1.0 2.1 91 91
- 0.555 1 2 cbr 500 ------- 1 1.0 2.1 91 91
r 0.557286 1 2 cbr 500 ------- 1 1.0 2.1 87 87
+ 0.56 1 2 cbr 500 ------- 1 1.0 2.1 92 92
- 0.56 1 2 cbr 500 ------- 1 1.0 2.1 92 92
r 0.562286 1 2 cbr 500 ------- 1 1.0 2.1 88 88
+ 0.565 1 2 cbr 500 ------- 1 1.0 2.1 93 93
- 0.565 1 2 cbr 500 ------- 1 1.0 2.1 93 93
r 0.567286 1 2 cbr 500 ------- 1 1.0 2.1 89 89
+ 0.57 1 2 cbr 500 ------- 1 1.0 2.1 94 94
- 0.57 1 2 cbr 500 ------- 1 1.0 2.1 94 94
r 0.572286 1 2 cbr 500 ------- 1 1.0 2.1 90 90
+ 0.575 1 2 cbr 500 ------- 1 1.0 2.1 95 95
- 0.575 1 2 cbr 500 ------- 1 1.0 2.1 95 95
r 0.577286 1 2 cbr 500 ------- 1 1.0 2.1 91 91
+ 0.58 1 2 cbr 500 ------- 1 1.0 2.1 96 96
- 0.58 1 2 cbr 500 ------- 1 1.0 2.1 96 96
r 0.582286 1 2 cbr 500 ------- 1 1.0 2.1 92 92
+ 0.585 1 2 cbr 500 ------- 1 1.0 2.1 97 97
- 0.585 1 2 cbr 500 ------- 1 1.0 2.1 97 97
r 0.587286 1 2 cbr 500 ------- 1 1.0 2.1 93 93
+ 0.59 1 2 cbr 500 ------- 1 1.0 2.1 98 98
- 0.59 1 2 cbr 500 ------- 1 1.0 2.1 98 98
r 0.592286 1 2 cbr 500 ------- 1 1.0 2.1 94 94
+ 0.595 1 2 cbr 500 ------- 1 1.0 2.1 99 99
- 0.595 1 2 cbr 500 ------- 1 1.0 2.1 99 99
r 0.597286 1 2 cbr 500 ------- 1 1.0 2.1 95 95
+ 0.6 1 2 cbr 500 ------- 1 1.0 2.1 100 100
- 0.6 1 2 cbr 500 ------- 1 1.0 2.1 100 100
r 0.602286 1 2 cbr 500 ------- 1 1.0 2.1 96 96
+ 0.605 1 2 cbr 500 ------- 1 1.0 2.1 101 101
- 0.605 1 2 cbr 500 ------- 1 1.0 2.1 101 101
r 0.607286 1 2 cbr 500 ------- 1 1.0 2.1 97 97
+ 0.61 1 2 cbr 500 ------- 1 1.0 2.1 102 102
- 0.61 1 2 cbr 500 ------- 1 1.0 2.1 102 102
r 0.612286 1 2 cbr 500 ------- 1 1.0 2.1 98 98
+ 0.615 1 2 cbr 500 ------- 1 1.0 2.1 103 103
- 0.615 1 2 cbr 500 ------- 1 1.0 2.1 103 103
r 0.617286 1 2 cbr 500 ------- 1 1.0 2.1 99 99
+ 0.62 1 2 cbr 500 ------- 1 1.0 2.1 104 104
- 0.62 1 2 cbr 500 ------- 1 1.0 2.1 104 104
r 0.622286 1 2 cbr 500 ------- 1 1.0 2.1 100 100
+ 0.625 1 2 cbr 500 ------- 1 1.0 2.1 105 105
- 0.625 1 2 cbr 500 ------- 1 1.0 2.1 105 105
r 0.627286 1 2 cbr 500 ------- 1 1.0 2.1 101 101
+ 0.63 1 2 cbr 500 ------- 1 1.0 2.1 106 106
- 0.63 1 2 cbr 500 ------- 1 1.0 2.1 106 106
r 0.632286 1 2 cbr 500 ------- 1 1.0 2.1 102 102
+ 0.635 1 2 cbr 500 ------- 1 1.0 2.1 107 107
- 0.635 1 2 cbr 500 ------- 1 1.0 2.1 107 107
r 0.637286 1 2 cbr 500 ------- 1 1.0 2.1 103 103
+ 0.64 1 2 cbr 500 ------- 1 1.0 2.1 108 108
- 0.64 1 2 cbr 500 ------- 1 1.0 2.1 108 108
r 0.642286 1 2 cbr 500 ------- 1 1.0 2.1 104 104
+ 0.645 1 2 cbr 500 ------- 1 1.0 2.1 109 109
- 0.645 1 2 cbr 500 ------- 1 1.0 2.1 109 109
r 0.647286 1 2 cbr 500 ------- 1 1.0 2.1 105 105
+ 0.65 1 2 cbr 500 ------- 1 1.0 2.1 110 110
- 0.65 1 2 cbr 500 ------- 1 1.0 2.1 110 110
r 0.652286 1 2 cbr 500 ------- 1 1.0 2.1 106 106
+ 0.655 1 2 cbr 500 ------- 1 1.0 2.1 111 111
- 0.655 1 2 cbr 500 ------- 1 1.0 2.1 111 111
r 0.657286 1 2 cbr 500 ------- 1 1.0 2.1 107 107
+ 0.66 1 2 cbr 500 ------- 1 1.0 2.1 112 112
- 0.66 1 2 cbr 500 ------- 1 1.0 2.1 112 112
r 0.662286 1 2 cbr 500 ------- 1 1.0 2.1 108 108
+ 0.665 1 2 cbr 500 ------- 1 1.0 2.1 113 113
- 0.665 1 2 cbr 500 ------- 1 1.0 2.1 113 113
r 0.667286 1 2 cbr 500 ------- 1 1.0 2.1 109 109
+ 0.67 1 2 cbr 500 ------- 1 1.0 2.1 114 114
- 0.67 1 2 cbr 500 ------- 1 1.0 2.1 114 114
r 0.672286 1 2 cbr 500 ------- 1 1.0 2.1 110 110
+ 0.675 1 2 cbr 500 ------- 1 1.0 2.1 115 115
- 0.675 1 2 cbr 500 ------- 1 1.0 2.1 115 115
r 0.677286 1 2 cbr 500 ------- 1 1.0 2.1 111 111
+ 0.68 1 2 cbr 500 ------- 1 1.0 2.1 116 116
- 0.68 1 2 cbr 500 ------- 1 1.0 2.1 116 116
r 0.682286 1 2 cbr 500 ------- 1 1.0 2.1 112 112
+ 0.685 1 2 cbr 500 ------- 1 1.0 2.1 117 117
- 0.685 1 2 cbr 500 ------- 1 1.0 2.1 117 117
r 0.687286 1 2 cbr 500 ------- 1 1.0 2.1 113 113
+ 0.69 1 2 cbr 500 ------- 1 1.0 2.1 118 118
- 0.69 1 2 cbr 500 ------- 1 1.0 2.1 118 118
r 0.692286 1 2 cbr 500 ------- 1 1.0 2.1 114 114
+ 0.695 1 2 cbr 500 ------- 1 1.0 2.1 119 119
- 0.695 1 2 cbr 500 ------- 1 1.0 2.1 119 119
r 0.697286 1 2 cbr 500 ------- 1 1.0 2.1 115 115
+ 0.7 1 2 cbr 500 ------- 1 1.0 2.1 120 120
- 0.7 1 2 cbr 500 ------- 1 1.0 2.1 120 120
r 0.702286 1 2 cbr 500 ------- 1 1.0 2.1 116 116
+ 0.705 1 2 cbr 500 ------- 1 1.0 2.1 121 121
- 0.705 1 2 cbr 500 ------- 1 1.0 2.1 121 121
r 0.707286 1 2 cbr 500 ------- 1 1.0 2.1 117 117
+ 0.71 1 2 cbr 500 ------- 1 1.0 2.1 122 122
- 0.71 1 2 cbr 500 ------- 1 1.0 2.1 122 122
r 0.712286 1 2 cbr 500 ------- 1 1.0 2.1 118 118
+ 0.715 1 2 cbr 500 ------- 1 1.0 2.1 123 123
- 0.715 1 2 cbr 500 ------- 1 1.0 2.1 123 123
r 0.717286 1 2 cbr 500 ------- 1 1.0 2.1 119 119
+ 0.72 1 2 cbr 500 ------- 1 1.0 2.1 124 124
- 0.72 1 2 cbr 500 ------- 1 1.0 2.1 124 124
r 0.722286 1 2 cbr 500 ------- 1 1.0 2.1 120 120
+ 0.725 1 2 cbr 500 ------- 1 1.0 2.1 125 125
- 0.725 1 2 cbr 500 ------- 1 1.0 2.1 125 125
r 0.727286 1 2 cbr 500 ------- 1 1.0 2.1 121 121
+ 0.73 1 2 cbr 500 ------- 1 1.0 2.1 126 126
- 0.73 1 2 cbr 500 ------- 1 1.0 2.1 126 126
r 0.732286 1 2 cbr 500 ------- 1 1.0 2.1 122 122
+ 0.735 1 2 cbr 500 ------- 1 1.0 2.1 127 127
- 0.735 1 2 cbr 500 ------- 1 1.0 2.1 127 127
r 0.737286 1 2 cbr 500 ------- 1 1.0 2.1 123 123
+ 0.74 1 2 cbr 500 ------- 1 1.0 2.1 128 128
- 0.74 1 2 cbr 500 ------- 1 1.0 2.1 128 128
r 0.742286 1 2 cbr 500 ------- 1 1.0 2.1 124 124
+ 0.745 1 2 cbr 500 ------- 1 1.0 2.1 129 129
- 0.745 1 2 cbr 500 ------- 1 1.0 2.1 129 129
r 0.747286 1 2 cbr 500 ------- 1 1.0 2.1 125 125
+ 0.75 1 2 cbr 500 ------- 1 1.0 2.1 130 130
- 0.75 1 2 cbr 500 ------- 1 1.0 2.1 130 130
r 0.752286 1 2 cbr 500 ------- 1 1.0 2.1 126 126
+ 0.755 1 2 cbr 500 ------- 1 1.0 2.1 131 131
- 0.755 1 2 cbr 500 ------- 1 1.0 2.1 131 131
r 0.757286 1 2 cbr 500 ------- 1 1.0 2.1 127 127
+ 0.76 1 2 cbr 500 ------- 1 1.0 2.1 132 132
- 0.76 1 2 cbr 500 ------- 1 1.0 2.1 132 132
r 0.762286 1 2 cbr 500 ------- 1 1.0 2.1 128 128
+ 0.765 1 2 cbr 500 ------- 1 1.0 2.1 133 133
- 0.765 1 2 cbr 500 ------- 1 1.0 2.1 133 133
r 0.767286 1 2 cbr 500 ------- 1 1.0 2.1 129 129
+ 0.77 1 2 cbr 500 ------- 1 1.0 2.1 134 134
- 0.77 1 2 cbr 500 ------- 1 1.0 2.1 134 134
r 0.772286 1 2 cbr 500 ------- 1 1.0 2.1 130 130
+ 0.775 1 2 cbr 500 ------- 1 1.0 2.1 135 135
- 0.775 1 2 cbr 500 ------- 1 1.0 2.1 135 135
r 0.777286 1 2 cbr 500 ------- 1 1.0 2.1 131 131
+ 0.78 1 2 cbr 500 ------- 1 1.0 2.1 136 136
- 0.78 1 2 cbr 500 ------- 1 1.0 2.1 136 136
r 0.782286 1 2 cbr 500 ------- 1 1.0 2.1 132 132
+ 0.785 1 2 cbr 500 ------- 1 1.0 2.1 137 137
- 0.785 1 2 cbr 500 ------- 1 1.0 2.1 137 137
r 0.787286 1 2 cbr 500 ------- 1 1.0 2.1 133 133
+ 0.79 1 2 cbr 500 ------- 1 1.0 2.1 138 138
- 0.79 1 2 cbr 500 ------- 1 1.0 2.1 138 138
r 0.792286 1 2 cbr 500 ------- 1 1.0 2.1 134 134
+ 0.795 1 2 cbr 500 ------- 1 1.0 2.1 139 139
- 0.795 1 2 cbr 500 ------- 1 1.0 2.1 139 139
r 0.797286 1 2 cbr 500 ------- 1 1.0 2.1 135 135
+ 0.8 1 2 cbr 500 ------- 1 1.0 2.1 140 140
- 0.8 1 2 cbr 500 ------- 1 1.0 2.1 140 140
r 0.802286 1 2 cbr 500 ------- 1 1.0 2.1 136 136
+ 0.805 1 2 cbr 500 ------- 1 1.0 2.1 141 141
- 0.805 1 2 cbr 500 ------- 1 1.0 2.1 141 141
r 0.807286 1 2 cbr 500 ------- 1 1.0 2.1 137 137
+ 0.81 1 2 cbr 500 ------- 1 1.0 2.1 142 142
- 0.81 1 2 cbr 500 ------- 1 1.0 2.1 142 142
r 0.812286 1 2 cbr 500 ------- 1 1.0 2.1 138 138
+ 0.815 1 2 cbr 500 ------- 1 1.0 2.1 143 143
- 0.815 1 2 cbr 500 ------- 1 1.0 2.1 143 143
r 0.817286 1 2 cbr 500 ------- 1 1.0 2.1 139 139
+ 0.82 1 2 cbr 500 ------- 1 1.0 2.1 144 144
- 0.82 1 2 cbr 500 ------- 1 1.0 2.1 144 144
r 0.822286 1 2 cbr 500 ------- 1 1.0 2.1 140 140
+ 0.825 1 2 cbr 500 ------- 1 1.0 2.1 145 145
- 0.825 1 2 cbr 500 ------- 1 1.0 2.1 145 145
r 0.827286 1 2 cbr 500 ------- 1 1.0 2.1 141 141
+ 0.83 1 2 cbr 500 ------- 1 1.0 2.1 146 146
- 0.83 1 2 cbr 500 ------- 1 1.0 2.1 146 146
r 0.832286 1 2 cbr 500 ------- 1 1.0 2.1 142 142
+ 0.835 1 2 cbr 500 ------- 1 1.0 2.1 147 147
- 0.835 1 2 cbr 500 ------- 1 1.0 2.1 147 147
r 0.837286 1 2 cbr 500 ------- 1 1.0 2.1 143 143
+ 0.84 1 2 cbr 500 ------- 1 1.0 2.1 148 148
- 0.84 1 2 cbr 500 ------- 1 1.0 2.1 148 148
r 0.842286 1 2 cbr 500 ------- 1 1.0 2.1 144 144
+ 0.845 1 2 cbr 500 ------- 1 1.0 2.1 149 149
- 0.845 1 2 cbr 500 ------- 1 1.0 2.1 149 149
r 0.847286 1 2 cbr 500 ------- 1 1.0 2.1 145 145
+ 0.85 1 2 cbr 500 ------- 1 1.0 2.1 150 150
- 0.85 1 2 cbr 500 ------- 1 1.0 2.1 150 150
r 0.852286 1 2 cbr 500 ------- 1 1.0 2.1 146 146
+ 0.855 1 2 cbr 500 ------- 1 1.0 2.1 151 151
- 0.855 1 2 cbr 500 ------- 1 1.0 2.1 151 151
r 0.857286 1 2 cbr 500 ------- 1 1.0 2.1 147 147
+ 0.86 1 2 cbr 500 ------- 1 1.0 2.1 152 152
- 0.86 1 2 cbr 500 ------- 1 1.0 2.1 152 152
r 0.862286 1 2 cbr 500 ------- 1 1.0 2.1 148 148
+ 0.865 1 2 cbr 500 ------- 1 1.0 2.1 153 153
- 0.865 1 2 cbr 500 ------- 1 1.0 2.1 153 153
r 0.867286 1 2 cbr 500 ------- 1 1.0 2.1 149 149
+ 0.87 1 2 cbr 500 ------- 1 1.0 2.1 154 154
- 0.87 1 2 cbr 500 ------- 1 1.0 2.1 154 154
r 0.872286 1 2 cbr 500 ------- 1 1.0 2.1 150 150
+ 0.875 1 2 cbr 500 ------- 1 1.0 2.1 155 155
- 0.875 1 2 cbr 500 ------- 1 1.0 2.1 155 155
r 0.877286 1 2 cbr 500 ------- 1 1.0 2.1 151 151
+ 0.88 1 2 cbr 500 ------- 1 1.0 2.1 156 156
- 0.88 1 2 cbr 500 ------- 1 1.0 2.1 156 156
r 0.882286 1 2 cbr 500 ------- 1 1.0 2.1 152 152
+ 0.885 1 2 cbr 500 ------- 1 1.0 2.1 157 157
- 0.885 1 2 cbr 500 ------- 1 1.0 2.1 157 157
r 0.887286 1 2 cbr 500 ------- 1 1.0 2.1 153 153
+ 0.89 1 2 cbr 500 ------- 1 1.0 2.1 158 158
- 0.89 1 2 cbr 500 ------- 1 1.0 2.1 158 158
r 0.892286 1 2 cbr 500 ------- 1 1.0 2.1 154 154
+ 0.895 1 2 cbr 500 ------- 1 1.0 2.1 159 159
- 0.895 1 2 cbr 500 ------- 1 1.0 2.1 159 159
r 0.897286 1 2 cbr 500 ------- 1 1.0 2.1 155 155
+ 0.9 1 2 cbr 500 ------- 1 1.0 2.1 160 160
- 0.9 1 2 cbr 500 ------- 1 1.0 2.1 160 160
r 0.902286 1 2 cbr 500 ------- 1 1.0 2.1 156 156
+ 0.905 1 2 cbr 500 ------- 1 1.0 2.1 161 161
- 0.905 1 2 cbr 500 ------- 1 1.0 2.1 161 161
r 0.907286 1 2 cbr 500 ------- 1 1.0 2.1 157 157
+ 0.91 1 2 cbr 500 ------- 1 1.0 2.1 162 162
- 0.91 1 2 cbr 500 ------- 1 1.0 2.1 162 162
r 0.912286 1 2 cbr 500 ------- 1 1.0 2.1 158 158
+ 0.915 1 2 cbr 500 ------- 1 1.0 2.1 163 163
- 0.915 1 2 cbr 500 ------- 1 1.0 2.1 163 163
r 0.917286 1 2 cbr 500 ------- 1 1.0 2.1 159 159
+ 0.92 1 2 cbr 500 ------- 1 1.0 2.1 164 164
- 0.92 1 2 cbr 500 ------- 1 1.0 2.1 164 164
r 0.922286 1 2 cbr 500 ------- 1 1.0 2.1 160 160
+ 0.925 1 2 cbr 500 ------- 1 1.0 2.1 165 165
- 0.925 1 2 cbr 500 ------- 1 1.0 2.1 165 165
r 0.927286 1 2 cbr 500 ------- 1 1.0 2.1 161 161
+ 0.93 1 2 cbr 500 ------- 1 1.0 2.1 166 166
- 0.93 1 2 cbr 500 ------- 1 1.0 2.1 166 166
r 0.932286 1 2 cbr 500 ------- 1 1.0 2.1 162 162
+ 0.935 1 2 cbr 500 ------- 1 1.0 2.1 167 167
- 0.935 1 2 cbr 500 ------- 1 1.0 2.1 167 167
r 0.937286 1 2 cbr 500 ------- 1 1.0 2.1 163 163
+ 0.94 1 2 cbr 500 ------- 1 1.0 2.1 168 168
- 0.94 1 2 cbr 500 ------- 1 1.0 2.1 168 168
r 0.942286 1 2 cbr 500 ------- 1 1.0 2.1 164 164
+ 0.945 1 2 cbr 500 ------- 1 1.0 2.1 169 169
- 0.945 1 2 cbr 500 ------- 1 1.0 2.1 169 169
r 0.947286 1 2 cbr 500 ------- 1 1.0 2.1 165 165
+ 0.95 1 2 cbr 500 ------- 1 1.0 2.1 170 170
- 0.95 1 2 cbr 500 ------- 1 1.0 2.1 170 170
r 0.952286 1 2 cbr 500 ------- 1 1.0 2.1 166 166
+ 0.955 1 2 cbr 500 ------- 1 1.0 2.1 171 171
- 0.955 1 2 cbr 500 ------- 1 1.0 2.1 171 171
r 0.957286 1 2 cbr 500 ------- 1 1.0 2.1 167 167
+ 0.96 1 2 cbr 500 ------- 1 1.0 2.1 172 172
- 0.96 1 2 cbr 500 ------- 1 1.0 2.1 172 172
r 0.962286 1 2 cbr 500 ------- 1 1.0 2.1 168 168
+ 0.965 1 2 cbr 500 ------- 1 1.0 2.1 173 173
- 0.965 1 2 cbr 500 ------- 1 1.0 2.1 173 173
r 0.967286 1 2 cbr 500 ------- 1 1.0 2.1 169 169
+ 0.97 1 2 cbr 500 ------- 1 1.0 2.1 174 174
- 0.97 1 2 cbr 500 ------- 1 1.0 2.1 174 174
r 0.972286 1 2 cbr 500 ------- 1 1.0 2.1 170 170
+ 0.975 1 2 cbr 500 ------- 1 1.0 2.1 175 175
- 0.975 1 2 cbr 500 ------- 1 1.0 2.1 175 175
r 0.977286 1 2 cbr 500 ------- 1 1.0 2.1 171 171
+ 0.98 1 2 cbr 500 ------- 1 1.0 2.1 176 176
- 0.98 1 2 cbr 500 ------- 1 1.0 2.1 176 176
r 0.982286 1 2 cbr 500 ------- 1 1.0 2.1 172 172
+ 0.985 1 2 cbr 500 ------- 1 1.0 2.1 177 177
- 0.985 1 2 cbr 500 ------- 1 1.0 2.1 177 177
r 0.987286 1 2 cbr 500 ------- 1 1.0 2.1 173 173
+ 0.99 1 2 cbr 500 ------- 1 1.0 2.1 178 178
- 0.99 1 2 cbr 500 ------- 1 1.0 2.1 178 178
r 0.992286 1 2 cbr 500 ------- 1 1.0 2.1 174 174
+ 0.995 1 2 cbr 500 ------- 1 1.0 2.1 179 179
- 0.995 1 2 cbr 500 ------- 1 1.0 2.1 179 179
r 0.997286 1 2 cbr 500 ------- 1 1.0 2.1 175 175
+ 1 0 1 tcp 40 ------- 2 0.0 2.0 0 180
- 1 0 1 tcp 40 ------- 2 0.0 2.0 0 180
+ 1 1 2 cbr 500 ------- 1 1.0 2.1 180 181
- 1 1 2 cbr 500 ------- 1 1.0 2.1 180 181
r 1.002286 1 2 cbr 500 ------- 1 1.0 2.1 176 176
+ 1.005 1 2 cbr 500 ------- 1 1.0 2.1 181 182
- 1.005 1 2 cbr 500 ------- 1 1.0 2.1 181 182
r 1.007286 1 2 cbr 500 ------- 1 1.0 2.1 177 177
+ 1.01 1 2 cbr 500 ------- 1 1.0 2.1 182 183
- 1.01 1 2 cbr 500 ------- 1 1.0 2.1 182 183
r 1.01016 0 1 tcp 40 ------- 2 0.0 2.0 0 180
+ 1.01016 1 2 tcp 40 ------- 2 0.0 2.0 0 180
- 1.012286 1 2 tcp 40 ------- 2 0.0 2.0 0 180
r 1.012286 1 2 cbr 500 ------- 1 1.0 2.1 178 178
+ 1.015 1 2 cbr 500 ------- 1 1.0 2.1 183 184
- 1.015 1 2 cbr 500 ------- 1 1.0 2.1 183 184
r 1.017286 1 2 cbr 500 ------- 1 1.0 2.1 179 179
+ 1.02 1 2 cbr 500 ------- 1 1.0 2.1 184 185
- 1.02 1 2 cbr 500 ------- 1 1.0 2.1 184 185
r 1.022286 1 2 cbr 500 ------- 1 1.0 2.1 180 181
+ 1.025 1 2 cbr 500 ------- 1 1.0 2.1 185 186
- 1.025 1 2 cbr 500 ------- 1 1.0 2.1 185 186
r 1.027286 1 2 cbr 500 ------- 1 1.0 2.1 181 182
+ 1.03 1 2 cbr 500 ------- 1 1.0 2.1 186 187
- 1.03 1 2 cbr 500 ------- 1 1.0 2.1 186 187
r 1.032286 1 2 cbr 500 ------- 1 1.0 2.1 182 183
r 1.032469 1 2 tcp 40 ------- 2 0.0 2.0 0 180
+ 1.032469 2 1 ack 40 ------- 2 2.0 0.0 0 188
- 1.032469 2 1 ack 40 ------- 2 2.0 0.0 0 188
+ 1.035 1 2 cbr 500 ------- 1 1.0 2.1 187 189
- 1.035 1 2 cbr 500 ------- 1 1.0 2.1 187 189
r 1.037286 1 2 cbr 500 ------- 1 1.0 2.1 183 184
+ 1.04 1 2 cbr 500 ------- 1 1.0 2.1 188 190
- 1.04 1 2 cbr 500 ------- 1 1.0 2.1 188 190
r 1.042286 1 2 cbr 500 ------- 1 1.0 2.1 184 185
+ 1.045 1 2 cbr 500 ------- 1 1.0 2.1 189 191
- 1.045 1 2 cbr 500 ------- 1 1.0 2.1 189 191
r 1.047286 1 2 cbr 500 ------- 1 1.0 2.1 185 186
+ 1.05 1 2 cbr 500 ------- 1 1.0 2.1 190 192
- 1.05 1 2 cbr 500 ------- 1 1.0 2.1 190 192
r 1.052286 1 2 cbr 500 ------- 1 1.0 2.1 186 187
r 1.052651 2 1 ack 40 ------- 2 2.0 0.0 0 188
+ 1.052651 1 0 ack 40 ------- 2 2.0 0.0 0 188
- 1.052651 1 0 ack 40 ------- 2 2.0 0.0 0 188
+ 1.055 1 2 cbr 500 ------- 1 1.0 2.1 191 193
- 1.055 1 2 cbr 500 ------- 1 1.0 2.1 191 193
r 1.057286 1 2 cbr 500 ------- 1 1.0 2.1 187 189
+ 1.06 1 2 cbr 500 ------- 1 1.0 2.1 192 194
- 1.06 1 2 cbr 500 ------- 1 1.0 2.1 192 194
r 1.062286 1 2 cbr 500 ------- 1 1.0 2.1 188 190
r 1.062811 1 0 ack 40 ------- 2 2.0 0.0 0 188
+ 1.062811 0 1 tcp 1040 ------- 2 0.0 2.0 1 195
- 1.062811 0 1 tcp 1040 ------- 2 0.0 2.0 1 195
+ 1.062811 0 1 tcp 1040 ------- 2 0.0 2.0 2 196
+ 1.065 1 2 cbr 500 ------- 1 1.0 2.1 193 197
- 1.065 1 2 cbr 500 ------- 1 1.0 2.1 193 197
- 1.066971 0 1 tcp 1040 ------- 2 0.0 2.0 2 196
r 1.067286 1 2 cbr 500 ------- 1 1.0 2.1 189 191
+ 1.07 1 2 cbr 500 ------- 1 1.0 2.1 194 198
- 1.07 1 2 cbr 500 ------- 1 1.0 2.1 194 198
r 1.072286 1 2 cbr 500 ------- 1 1.0 2.1 190 192
+ 1.075 1 2 cbr 500 ------- 1 1.0 2.1 195 199
- 1.075 1 2 cbr 500 ------- 1 1.0 2.1 195 199
r 1.076971 0 1 tcp 1040 ------- 2 0.0 2.0 1 195
+ 1.076971 1 2 tcp 1040 ------- 2 0.0 2.0 1 195
- 1.077286 1 2 tcp 1040 ------- 2 0.0 2.0 1 195
r 1.077286 1 2 cbr 500 ------- 1 1.0 2.1 191 193
+ 1.08 1 2 cbr 500 ------- 1 1.0 2.1 196 200
r 1.081131 0 1 tcp 1040 ------- 2 0.0 2.0 2 196
+ 1.081131 1 2 tcp 1040 ------- 2 0.0 2.0 2 196
- 1.08204 1 2 cbr 500 ------- 1 1.0 2.1 196 200
r 1.082286 1 2 cbr 500 ------- 1 1.0 2.1 192 194
- 1.084326 1 2 tcp 1040 ------- 2 0.0 2.0 2 196
+ 1.085 1 2 cbr 500 ------- 1 1.0 2.1 197 201
r 1.087286 1 2 cbr 500 ------- 1 1.0 2.1 193 197
- 1.08908 1 2 cbr 500 ------- 1 1.0 2.1 197 201
+ 1.09 1 2 cbr 500 ------- 1 1.0 2.1 198 202
- 1.091366 1 2 cbr 500 ------- 1 1.0 2.1 198 202
r 1.092286 1 2 cbr 500 ------- 1 1.0 2.1 194 198
+ 1.095 1 2 cbr 500 ------- 1 1.0 2.1 199 203
- 1.095 1 2 cbr 500 ------- 1 1.0 2.1 199 203
r 1.097286 1 2 cbr 500 ------- 1 1.0 2.1 195 199
+ 1.1 1 2 cbr 500 ------- 1 1.0 2.1 200 204
- 1.1 1 2 cbr 500 ------- 1 1.0 2.1 200 204
r 1.10204 1 2 tcp 1040 ------- 2 0.0 2.0 1 195
+ 1.10204 2 1 ack 40 ------- 2 2.0 0.0 1 205
- 1.10204 2 1 ack 40 ------- 2 2.0 0.0 1 205
r 1.104326 1 2 cbr 500 ------- 1 1.0 2.1 196 200
+ 1.105 1 2 cbr 500 ------- 1 1.0 2.1 201 206
- 1.105 1 2 cbr 500 ------- 1 1.0 2.1 201 206
r 1.10908 1 2 tcp 1040 ------- 2 0.0 2.0 2 196
+ 1.10908 2 1 ack 40 ------- 2 2.0 0.0 2 207
- 1.10908 2 1 ack 40 ------- 2 2.0 0.0 2 207
+ 1.11 1 2 cbr 500 ------- 1 1.0 2.1 202 208
- 1.11 1 2 cbr 500 ------- 1 1.0 2.1 202 208
r 1.111366 1 2 cbr 500 ------- 1 1.0 2.1 197 201
r 1.113651 1 2 cbr 500 ------- 1 1.0 2.1 198 202
+ 1.115 1 2 cbr 500 ------- 1 1.0 2.1 203 209
- 1.115 1 2 cbr 500 ------- 1 1.0 2.1 203 209
r 1.117286 1 2 cbr 500 ------- 1 1.0 2.1 199 203
+ 1.12 1 2 cbr 500 ------- 1 1.0 2.1 204 210
- 1.12 1 2 cbr 500 ------- 1 1.0 2.1 204 210
r 1.122223 2 1 ack 40 ------- 2 2.0 0.0 1 205
+ 1.122223 1 0 ack 40 ------- 2 2.0 0.0 1 205
- 1.122223 1 0 ack 40 ------- 2 2.0 0.0 1 205
r 1.122286 1 2 cbr 500 ------- 1 1.0 2.1 200 204
+ 1.125 1 2 cbr 500 ------- 1 1.0 2.1 205 211
- 1.125 1 2 cbr 500 ------- 1 1.0 2.1 205 211
r 1.127286 1 2 cbr 500 ------- 1 1.0 2.1 201 206
r 1.129263 2 1 ack 40 ------- 2 2.0 0.0 2 207
+ 1.129263 1 0 ack 40 ------- 2 2.0 0.0 2 207
- 1.129263 1 0 ack 40 ------- 2 2.0 0.0 2 207
+ 1.13 1 2 cbr 500 ------- 1 1.0 2.1 206 212
- 1.13 1 2 cbr 500 ------- 1 1.0 2.1 206 212
r 1.132286 1 2 cbr 500 ------- 1 1.0 2.1 202 208
r 1.132383 1 0 ack 40 ------- 2 2.0 0.0 1 205
+ 1.132383 0 1 tcp 1040 ------- 2 0.0 2.0 3 213
- 1.132383 0 1 tcp 1040 ------- 2 0.0 2.0 3 213
+ 1.132383 0 1 tcp 1040 ------- 2 0.0 2.0 4 214
+ 1.135 1 2 cbr 500 ------- 1 1.0 2.1 207 215
- 1.135 1 2 cbr 500 ------- 1 1.0 2.1 207 215